 Entering Gaussian System, Link 0=/sw/xc40cle6/gaussian09/d.01/precompiled/g09/g09
 Initial command:
 /sw/xc40cle6/gaussian09/d.01/precompiled/g09/l1.exe "/project/k1212/calcinf/13/Gau-29091.inp" -scrdir="/project/k1212/calcinf/13/"
 Entering Link 1 = /sw/xc40cle6/gaussian09/d.01/precompiled/g09/l1.exe PID=     29092.
  
 Copyright (c) 1988,1990,1992,1993,1995,1998,2003,2009,2013,
            Gaussian, Inc.  All Rights Reserved.
  
 This is part of the Gaussian(R) 09 program.  It is based on
 the Gaussian(R) 03 system (copyright 2003, Gaussian, Inc.),
 the Gaussian(R) 98 system (copyright 1998, Gaussian, Inc.),
 the Gaussian(R) 94 system (copyright 1995, Gaussian, Inc.),
 the Gaussian 92(TM) system (copyright 1992, Gaussian, Inc.),
 the Gaussian 90(TM) system (copyright 1990, Gaussian, Inc.),
 the Gaussian 88(TM) system (copyright 1988, Gaussian, Inc.),
 the Gaussian 86(TM) system (copyright 1986, Carnegie Mellon
 University), and the Gaussian 82(TM) system (copyright 1983,
 Carnegie Mellon University). Gaussian is a federally registered
 trademark of Gaussian, Inc.
  
 This software contains proprietary and confidential information,
 including trade secrets, belonging to Gaussian, Inc.
  
 This software is provided under written license and may be
 used, copied, transmitted, or stored only in accord with that
 written license.
  
 The following legend is applicable only to US Government
 contracts under FAR:
  
                    RESTRICTED RIGHTS LEGEND
  
 Use, reproduction and disclosure by the US Government is
 subject to restrictions as set forth in subparagraphs (a)
 and (c) of the Commercial Computer Software - Restricted
 Rights clause in FAR 52.227-19.
  
 Gaussian, Inc.
 340 Quinnipiac St., Bldg. 40, Wallingford CT 06492
  
  
 ---------------------------------------------------------------
 Warning -- This program may not be used in any manner that
 competes with the business of Gaussian, Inc. or will provide
 assistance to any competitor of Gaussian, Inc.  The licensee
 of this program is prohibited from giving any competitor of
 Gaussian, Inc. access to this program.  By using this program,
 the user acknowledges that Gaussian, Inc. is engaged in the
 business of creating and licensing software in the field of
 computational chemistry and represents and warrants to the
 licensee that it is not a competitor of Gaussian, Inc. and that
 it will not use this program in any manner prohibited above.
 ---------------------------------------------------------------
  

 Cite this work as:
 Gaussian 09, Revision D.01,
 M. J. Frisch, G. W. Trucks, H. B. Schlegel, G. E. Scuseria, 
 M. A. Robb, J. R. Cheeseman, G. Scalmani, V. Barone, B. Mennucci, 
 G. A. Petersson, H. Nakatsuji, M. Caricato, X. Li, H. P. Hratchian, 
 A. F. Izmaylov, J. Bloino, G. Zheng, J. L. Sonnenberg, M. Hada, 
 M. Ehara, K. Toyota, R. Fukuda, J. Hasegawa, M. Ishida, T. Nakajima, 
 Y. Honda, O. Kitao, H. Nakai, T. Vreven, J. A. Montgomery, Jr., 
 J. E. Peralta, F. Ogliaro, M. Bearpark, J. J. Heyd, E. Brothers, 
 K. N. Kudin, V. N. Staroverov, T. Keith, R. Kobayashi, J. Normand, 
 K. Raghavachari, A. Rendell, J. C. Burant, S. S. Iyengar, J. Tomasi, 
 M. Cossi, N. Rega, J. M. Millam, M. Klene, J. E. Knox, J. B. Cross, 
 V. Bakken, C. Adamo, J. Jaramillo, R. Gomperts, R. E. Stratmann, 
 O. Yazyev, A. J. Austin, R. Cammi, C. Pomelli, J. W. Ochterski, 
 R. L. Martin, K. Morokuma, V. G. Zakrzewski, G. A. Voth, 
 P. Salvador, J. J. Dannenberg, S. Dapprich, A. D. Daniels, 
 O. Farkas, J. B. Foresman, J. V. Ortiz, J. Cioslowski, 
 and D. J. Fox, Gaussian, Inc., Wallingford CT, 2013.
 
 ******************************************
 Gaussian 09:  ES64L-G09RevD.01 24-Apr-2013
                16-Jan-2019 
 ******************************************
 %nprocshared=32
 Will use up to   32 processors via shared memory.
 %mem=122GB
 %chk=q.chk
 ----------------------------------------------------------------------
 #pbe1pbe/tzvp scf=(xqc, maxconventionalcycles=2000) SCRF=(SMD,Solvent=
 water) opt=calcfc
 ----------------------------------------------------------------------
 1/10=4,14=-1,18=20,19=15,26=3,38=1/1,3;
 2/9=110,12=2,17=6,18=5,40=1/2;
 3/5=19,7=101,11=2,16=1,25=1,30=1,70=32201,71=2,72=1,74=-13,140=1/1,2,3;
 4//1;
 5/5=2,8=3,13=1,38=5,53=1,85=2000/2,8;
 8/6=4,10=90,11=11/1;
 11/6=1,8=1,9=11,15=111,16=1/1,2,10;
 10/6=1,13=1/2;
 6/7=2,8=2,9=2,10=2,28=1/1;
 7/10=1,18=20,25=1/1,2,3,16;
 1/10=4,14=-1,18=20,19=15,26=3/3(2);
 2/9=110/2;
 99//99;
 2/9=110/2;
 3/5=19,7=101,11=2,16=1,25=1,30=1,70=32205,71=1,72=1,74=-13/1,2,3;
 4/5=5,16=3,69=1/1;
 5/5=2,8=3,13=1,38=5,53=1,85=2000/2,8;
 7//1,2,3,16;
 1/14=-1,18=20,19=15,26=3/3(-5);
 2/9=110/2;
 6/7=2,8=2,9=2,10=2,19=2,28=1/1;
 99/9=1/99;
 Leave Link    1 at Wed Jan 16 23:01:32 2019, MaxMem= 16374562816 cpu:         2.6
 (Enter /sw/xc40cle6/gaussian09/d.01/precompiled/g09/l101.exe)
 -----------------
 Dscr 2F Fe(II) S5
 -----------------
 Symbolic Z-matrix:
 Charge =  0 Multiplicity = 5
 C                    -3.68831   2.28617  -0.00835 
 C                    -2.75899   3.34609   0.0129 
 C                    -2.90574   1.0631    0.00001 
 C                    -1.44016   2.73733  -0.00091 
 N                    -1.58751   1.38976   0.0049 
 C                    -0.23      3.42716  -0.00041 
 C                    -3.42778  -0.23     -0.00299 
 C                    -2.7378   -1.44051  -0.0019 
 N                    -1.39024  -1.58744   0.00825 
 C                    -3.34613  -2.75959   0.01068 
 C                     1.06278   2.90515   0.00056 
 N                     1.38922   1.58695   0.00176 
 C                     2.28571   3.6878   -0.0085 
 C                    -2.28578  -3.68855  -0.01079 
 C                    -1.06309  -2.9055    0.00307 
 C                     0.2298   -3.42711   0.00302 
 C                     3.34557   2.75864   0.01247 
 C                     2.73673   1.43991  -0.00419 
 C                     1.43994  -2.73699   0.00099 
 N                     1.58669  -1.38933   0.0072 
 C                     2.75916  -3.34527  -0.01094 
 C                     3.68811  -2.28495   0.01012 
 C                     2.90478  -1.06239  -0.00444 
 C                     3.42654   0.23005  -0.0084 
 Fe                   -0.00028  -0.00036   0.0009 
 C                     3.2093   -4.65519   0.01265 
 C                     5.0491   -2.55379  -0.01446 
 C                     2.55479   5.04845   0.01696 
 C                     4.65532   3.20824  -0.01318 
 H                     4.50411   0.30143  -0.0085 
 H                     0.30128  -4.50451  -0.01111 
 H                    -0.30133   4.5047   -0.00562 
 H                    -4.50528  -0.30135  -0.0093 
 C                    -4.65571  -3.20953  -0.01864 
 C                    -2.55484  -5.04945   0.01031 
 C                    -3.86267  -5.48415  -0.00424 
 C                    -4.91261  -4.5644   -0.01211 
 C                    -5.04902   2.55537   0.0162 
 C                    -5.48328   3.86333   0.00572 
 C                    -4.56346   4.91296  -0.00246 
 C                    -3.20873   4.65581  -0.01172 
 C                     3.86275   5.48268   0.00646 
 C                     4.91266   4.56293  -0.00258 
 C                     4.56485  -4.91214   0.00715 
 C                     5.48451  -3.86143   0.00023 
 F                    -5.96712   1.58748   0.02783 
 F                    -6.78464   4.14086   0.01163 
 F                    -5.01056   6.16651  -0.01158 
 F                    -2.36951   5.69149  -0.02163 
 F                     1.58648   5.96611   0.03017 
 F                     4.14036   6.78422   0.01355 
 F                     5.69064   2.36873  -0.02622 
 F                     6.16624   5.01001  -0.01159 
 F                     5.96684  -1.58515  -0.02732 
 F                     6.7862   -4.13801  -0.00403 
 F                     2.36984  -5.69072   0.02614 
 F                     5.0126   -6.16548   0.01585 
 F                    -6.16601  -5.01167  -0.02457 
 F                    -5.69141  -2.37038  -0.03008 
 F                    -1.5865   -5.96745   0.02434 
 F                    -4.13996  -6.78567  -0.00063 
 
 NAtoms=     61 NQM=       61 NQMF=       0 NMMI=      0 NMMIF=      0
                NMic=       0 NMicF=      0.
                    Isotopes and Nuclear Properties:
 (Nuclear quadrupole moments (NQMom) in fm**2, nuclear magnetic moments (NMagM)
  in nuclear magnetons)

  Atom         1           2           3           4           5           6           7           8           9          10
 IAtWgt=          12          12          12          12          14          12          12          12          14          12
 AtmWgt=  12.0000000  12.0000000  12.0000000  12.0000000  14.0030740  12.0000000  12.0000000  12.0000000  14.0030740  12.0000000
 NucSpn=           0           0           0           0           2           0           0           0           2           0
 AtZEff=   0.0000000   0.0000000   0.0000000   0.0000000   0.0000000   0.0000000   0.0000000   0.0000000   0.0000000   0.0000000
 NQMom=    0.0000000   0.0000000   0.0000000   0.0000000   2.0440000   0.0000000   0.0000000   0.0000000   2.0440000   0.0000000
 NMagM=    0.0000000   0.0000000   0.0000000   0.0000000   0.4037610   0.0000000   0.0000000   0.0000000   0.4037610   0.0000000
 AtZNuc=   6.0000000   6.0000000   6.0000000   6.0000000   7.0000000   6.0000000   6.0000000   6.0000000   7.0000000   6.0000000

  Atom        11          12          13          14          15          16          17          18          19          20
 IAtWgt=          12          14          12          12          12          12          12          12          12          14
 AtmWgt=  12.0000000  14.0030740  12.0000000  12.0000000  12.0000000  12.0000000  12.0000000  12.0000000  12.0000000  14.0030740
 NucSpn=           0           2           0           0           0           0           0           0           0           2
 AtZEff=   0.0000000   0.0000000   0.0000000   0.0000000   0.0000000   0.0000000   0.0000000   0.0000000   0.0000000   0.0000000
 NQMom=    0.0000000   2.0440000   0.0000000   0.0000000   0.0000000   0.0000000   0.0000000   0.0000000   0.0000000   2.0440000
 NMagM=    0.0000000   0.4037610   0.0000000   0.0000000   0.0000000   0.0000000   0.0000000   0.0000000   0.0000000   0.4037610
 AtZNuc=   6.0000000   7.0000000   6.0000000   6.0000000   6.0000000   6.0000000   6.0000000   6.0000000   6.0000000   7.0000000

  Atom        21          22          23          24          25          26          27          28          29          30
 IAtWgt=          12          12          12          12          56          12          12          12          12           1
 AtmWgt=  12.0000000  12.0000000  12.0000000  12.0000000  55.9349393  12.0000000  12.0000000  12.0000000  12.0000000   1.0078250
 NucSpn=           0           0           0           0           0           0           0           0           0           1
 AtZEff=   0.0000000   0.0000000   0.0000000   0.0000000   0.0000000   0.0000000   0.0000000   0.0000000   0.0000000   0.0000000
 NQMom=    0.0000000   0.0000000   0.0000000   0.0000000   0.0000000   0.0000000   0.0000000   0.0000000   0.0000000   0.0000000
 NMagM=    0.0000000   0.0000000   0.0000000   0.0000000   0.0000000   0.0000000   0.0000000   0.0000000   0.0000000   2.7928460
 AtZNuc=   6.0000000   6.0000000   6.0000000   6.0000000  26.0000000   6.0000000   6.0000000   6.0000000   6.0000000   1.0000000

  Atom        31          32          33          34          35          36          37          38          39          40
 IAtWgt=           1           1           1          12          12          12          12          12          12          12
 AtmWgt=   1.0078250   1.0078250   1.0078250  12.0000000  12.0000000  12.0000000  12.0000000  12.0000000  12.0000000  12.0000000
 NucSpn=           1           1           1           0           0           0           0           0           0           0
 AtZEff=   0.0000000   0.0000000   0.0000000   0.0000000   0.0000000   0.0000000   0.0000000   0.0000000   0.0000000   0.0000000
 NQMom=    0.0000000   0.0000000   0.0000000   0.0000000   0.0000000   0.0000000   0.0000000   0.0000000   0.0000000   0.0000000
 NMagM=    2.7928460   2.7928460   2.7928460   0.0000000   0.0000000   0.0000000   0.0000000   0.0000000   0.0000000   0.0000000
 AtZNuc=   1.0000000   1.0000000   1.0000000   6.0000000   6.0000000   6.0000000   6.0000000   6.0000000   6.0000000   6.0000000

  Atom        41          42          43          44          45          46          47          48          49          50
 IAtWgt=          12          12          12          12          12          19          19          19          19          19
 AtmWgt=  12.0000000  12.0000000  12.0000000  12.0000000  12.0000000  18.9984033  18.9984033  18.9984033  18.9984033  18.9984033
 NucSpn=           0           0           0           0           0           1           1           1           1           1
 AtZEff=   0.0000000   0.0000000   0.0000000   0.0000000   0.0000000   0.0000000   0.0000000   0.0000000   0.0000000   0.0000000
 NQMom=    0.0000000   0.0000000   0.0000000   0.0000000   0.0000000   0.0000000   0.0000000   0.0000000   0.0000000   0.0000000
 NMagM=    0.0000000   0.0000000   0.0000000   0.0000000   0.0000000   2.6288670   2.6288670   2.6288670   2.6288670   2.6288670
 AtZNuc=   6.0000000   6.0000000   6.0000000   6.0000000   6.0000000   9.0000000   9.0000000   9.0000000   9.0000000   9.0000000

  Atom        51          52          53          54          55          56          57          58          59          60
 IAtWgt=          19          19          19          19          19          19          19          19          19          19
 AtmWgt=  18.9984033  18.9984033  18.9984033  18.9984033  18.9984033  18.9984033  18.9984033  18.9984033  18.9984033  18.9984033
 NucSpn=           1           1           1           1           1           1           1           1           1           1
 AtZEff=   0.0000000   0.0000000   0.0000000   0.0000000   0.0000000   0.0000000   0.0000000   0.0000000   0.0000000   0.0000000
 NQMom=    0.0000000   0.0000000   0.0000000   0.0000000   0.0000000   0.0000000   0.0000000   0.0000000   0.0000000   0.0000000
 NMagM=    2.6288670   2.6288670   2.6288670   2.6288670   2.6288670   2.6288670   2.6288670   2.6288670   2.6288670   2.6288670
 AtZNuc=   9.0000000   9.0000000   9.0000000   9.0000000   9.0000000   9.0000000   9.0000000   9.0000000   9.0000000   9.0000000

  Atom        61
 IAtWgt=          19
 AtmWgt=  18.9984033
 NucSpn=           1
 AtZEff=   0.0000000
 NQMom=    0.0000000
 NMagM=    2.6288670
 AtZNuc=   9.0000000
 Leave Link  101 at Wed Jan 16 23:01:33 2019, MaxMem= 16374562816 cpu:        26.4
 (Enter /sw/xc40cle6/gaussian09/d.01/precompiled/g09/l103.exe)

 GradGradGradGradGradGradGradGradGradGradGradGradGradGradGradGradGradGrad
 Berny optimization.
 Initialization pass.
                           ----------------------------
                           !    Initial Parameters    !
                           ! (Angstroms and Degrees)  !
 --------------------------                            --------------------------
 ! Name  Definition              Value          Derivative Info.                !
 --------------------------------------------------------------------------------
 ! R1    R(1,2)                  1.4098         calculate D2E/DX2 analytically  !
 ! R2    R(1,3)                  1.452          calculate D2E/DX2 analytically  !
 ! R3    R(1,38)                 1.3873         calculate D2E/DX2 analytically  !
 ! R4    R(2,4)                  1.4526         calculate D2E/DX2 analytically  !
 ! R5    R(2,41)                 1.385          calculate D2E/DX2 analytically  !
 ! R6    R(3,5)                  1.3581         calculate D2E/DX2 analytically  !
 ! R7    R(3,7)                  1.3945         calculate D2E/DX2 analytically  !
 ! R8    R(4,5)                  1.3556         calculate D2E/DX2 analytically  !
 ! R9    R(4,6)                  1.393          calculate D2E/DX2 analytically  !
 ! R10   R(5,25)                 2.1099         calculate D2E/DX2 analytically  !
 ! R11   R(6,11)                 1.3942         calculate D2E/DX2 analytically  !
 ! R12   R(6,32)                 1.0799         calculate D2E/DX2 analytically  !
 ! R13   R(7,8)                  1.3934         calculate D2E/DX2 analytically  !
 ! R14   R(7,33)                 1.0799         calculate D2E/DX2 analytically  !
 ! R15   R(8,9)                  1.3556         calculate D2E/DX2 analytically  !
 ! R16   R(8,10)                 1.4526         calculate D2E/DX2 analytically  !
 ! R17   R(9,15)                 1.3581         calculate D2E/DX2 analytically  !
 ! R18   R(9,25)                 2.1097         calculate D2E/DX2 analytically  !
 ! R19   R(10,14)                1.4099         calculate D2E/DX2 analytically  !
 ! R20   R(10,34)                1.385          calculate D2E/DX2 analytically  !
 ! R21   R(11,12)                1.358          calculate D2E/DX2 analytically  !
 ! R22   R(11,13)                1.452          calculate D2E/DX2 analytically  !
 ! R23   R(12,18)                1.3555         calculate D2E/DX2 analytically  !
 ! R24   R(12,25)                2.1096         calculate D2E/DX2 analytically  !
 ! R25   R(13,17)                1.4096         calculate D2E/DX2 analytically  !
 ! R26   R(13,28)                1.3872         calculate D2E/DX2 analytically  !
 ! R27   R(14,15)                1.452          calculate D2E/DX2 analytically  !
 ! R28   R(14,35)                1.3874         calculate D2E/DX2 analytically  !
 ! R29   R(15,16)                1.3941         calculate D2E/DX2 analytically  !
 ! R30   R(16,19)                1.3931         calculate D2E/DX2 analytically  !
 ! R31   R(16,31)                1.0799         calculate D2E/DX2 analytically  !
 ! R32   R(17,18)                1.4526         calculate D2E/DX2 analytically  !
 ! R33   R(17,29)                1.385          calculate D2E/DX2 analytically  !
 ! R34   R(18,24)                1.3927         calculate D2E/DX2 analytically  !
 ! R35   R(19,20)                1.3556         calculate D2E/DX2 analytically  !
 ! R36   R(19,21)                1.4527         calculate D2E/DX2 analytically  !
 ! R37   R(20,23)                1.3581         calculate D2E/DX2 analytically  !
 ! R38   R(20,25)                2.109          calculate D2E/DX2 analytically  !
 ! R39   R(21,22)                1.4098         calculate D2E/DX2 analytically  !
 ! R40   R(21,26)                1.3853         calculate D2E/DX2 analytically  !
 ! R41   R(22,23)                1.4521         calculate D2E/DX2 analytically  !
 ! R42   R(22,27)                1.3875         calculate D2E/DX2 analytically  !
 ! R43   R(23,24)                1.3938         calculate D2E/DX2 analytically  !
 ! R44   R(24,30)                1.0799         calculate D2E/DX2 analytically  !
 ! R45   R(26,44)                1.3797         calculate D2E/DX2 analytically  !
 ! R46   R(26,56)                1.3331         calculate D2E/DX2 analytically  !
 ! R47   R(27,45)                1.3783         calculate D2E/DX2 analytically  !
 ! R48   R(27,54)                1.3344         calculate D2E/DX2 analytically  !
 ! R49   R(28,42)                1.3782         calculate D2E/DX2 analytically  !
 ! R50   R(28,50)                1.3341         calculate D2E/DX2 analytically  !
 ! R51   R(29,43)                1.379          calculate D2E/DX2 analytically  !
 ! R52   R(29,52)                1.333          calculate D2E/DX2 analytically  !
 ! R53   R(34,37)                1.379          calculate D2E/DX2 analytically  !
 ! R54   R(34,59)                1.333          calculate D2E/DX2 analytically  !
 ! R55   R(35,36)                1.3783         calculate D2E/DX2 analytically  !
 ! R56   R(35,60)                1.3344         calculate D2E/DX2 analytically  !
 ! R57   R(36,37)                1.3958         calculate D2E/DX2 analytically  !
 ! R58   R(36,61)                1.3307         calculate D2E/DX2 analytically  !
 ! R59   R(37,58)                1.3309         calculate D2E/DX2 analytically  !
 ! R60   R(38,39)                1.3782         calculate D2E/DX2 analytically  !
 ! R61   R(38,46)                1.3341         calculate D2E/DX2 analytically  !
 ! R62   R(39,40)                1.3956         calculate D2E/DX2 analytically  !
 ! R63   R(39,47)                1.3306         calculate D2E/DX2 analytically  !
 ! R64   R(40,41)                1.379          calculate D2E/DX2 analytically  !
 ! R65   R(40,48)                1.3309         calculate D2E/DX2 analytically  !
 ! R66   R(41,49)                1.3331         calculate D2E/DX2 analytically  !
 ! R67   R(42,43)                1.3958         calculate D2E/DX2 analytically  !
 ! R68   R(42,51)                1.3308         calculate D2E/DX2 analytically  !
 ! R69   R(43,53)                1.3309         calculate D2E/DX2 analytically  !
 ! R70   R(44,45)                1.3964         calculate D2E/DX2 analytically  !
 ! R71   R(44,57)                1.3309         calculate D2E/DX2 analytically  !
 ! R72   R(45,55)                1.3308         calculate D2E/DX2 analytically  !
 ! A1    A(2,1,3)              106.136          calculate D2E/DX2 analytically  !
 ! A2    A(2,1,38)             120.0263         calculate D2E/DX2 analytically  !
 ! A3    A(3,1,38)             133.7862         calculate D2E/DX2 analytically  !
 ! A4    A(1,2,4)              106.4549         calculate D2E/DX2 analytically  !
 ! A5    A(1,2,41)             119.7779         calculate D2E/DX2 analytically  !
 ! A6    A(4,2,41)             133.7049         calculate D2E/DX2 analytically  !
 ! A7    A(1,3,5)              108.6961         calculate D2E/DX2 analytically  !
 ! A8    A(1,3,7)              125.4006         calculate D2E/DX2 analytically  !
 ! A9    A(5,3,7)              125.9027         calculate D2E/DX2 analytically  !
 ! A10   A(2,4,5)              108.5341         calculate D2E/DX2 analytically  !
 ! A11   A(2,4,6)              125.5362         calculate D2E/DX2 analytically  !
 ! A12   A(5,4,6)              125.9237         calculate D2E/DX2 analytically  !
 ! A13   A(3,5,4)              110.1564         calculate D2E/DX2 analytically  !
 ! A14   A(3,5,25)             124.869          calculate D2E/DX2 analytically  !
 ! A15   A(4,5,25)             124.9715         calculate D2E/DX2 analytically  !
 ! A16   A(4,6,11)             128.3275         calculate D2E/DX2 analytically  !
 ! A17   A(4,6,32)             115.8963         calculate D2E/DX2 analytically  !
 ! A18   A(11,6,32)            115.7757         calculate D2E/DX2 analytically  !
 ! A19   A(3,7,8)              128.3322         calculate D2E/DX2 analytically  !
 ! A20   A(3,7,33)             115.774          calculate D2E/DX2 analytically  !
 ! A21   A(8,7,33)             115.8937         calculate D2E/DX2 analytically  !
 ! A22   A(7,8,9)              125.9046         calculate D2E/DX2 analytically  !
 ! A23   A(7,8,10)             125.558          calculate D2E/DX2 analytically  !
 ! A24   A(9,8,10)             108.5304         calculate D2E/DX2 analytically  !
 ! A25   A(8,9,15)             110.1597         calculate D2E/DX2 analytically  !
 ! A26   A(8,9,25)             124.986          calculate D2E/DX2 analytically  !
 ! A27   A(15,9,25)            124.8472         calculate D2E/DX2 analytically  !
 ! A28   A(8,10,14)            106.4528         calculate D2E/DX2 analytically  !
 ! A29   A(8,10,34)            133.6908         calculate D2E/DX2 analytically  !
 ! A30   A(14,10,34)           119.7847         calculate D2E/DX2 analytically  !
 ! A31   A(6,11,12)            125.8975         calculate D2E/DX2 analytically  !
 ! A32   A(6,11,13)            125.3921         calculate D2E/DX2 analytically  !
 ! A33   A(12,11,13)           108.7092         calculate D2E/DX2 analytically  !
 ! A34   A(11,12,18)           110.1362         calculate D2E/DX2 analytically  !
 ! A35   A(11,12,25)           124.8926         calculate D2E/DX2 analytically  !
 ! A36   A(18,12,25)           124.9702         calculate D2E/DX2 analytically  !
 ! A37   A(11,13,17)           106.1336         calculate D2E/DX2 analytically  !
 ! A38   A(11,13,28)           133.7855         calculate D2E/DX2 analytically  !
 ! A39   A(17,13,28)           120.0264         calculate D2E/DX2 analytically  !
 ! A40   A(10,14,15)           106.1304         calculate D2E/DX2 analytically  !
 ! A41   A(10,14,35)           120.015          calculate D2E/DX2 analytically  !
 ! A42   A(15,14,35)           133.7998         calculate D2E/DX2 analytically  !
 ! A43   A(9,15,14)            108.6984         calculate D2E/DX2 analytically  !
 ! A44   A(9,15,16)            125.9108         calculate D2E/DX2 analytically  !
 ! A45   A(14,15,16)           125.3898         calculate D2E/DX2 analytically  !
 ! A46   A(15,16,19)           128.3333         calculate D2E/DX2 analytically  !
 ! A47   A(15,16,31)           115.7645         calculate D2E/DX2 analytically  !
 ! A48   A(19,16,31)           115.8963         calculate D2E/DX2 analytically  !
 ! A49   A(13,17,18)           106.4449         calculate D2E/DX2 analytically  !
 ! A50   A(13,17,29)           119.7865         calculate D2E/DX2 analytically  !
 ! A51   A(18,17,29)           133.6982         calculate D2E/DX2 analytically  !
 ! A52   A(12,18,17)           108.5502         calculate D2E/DX2 analytically  !
 ! A53   A(12,18,24)           125.9175         calculate D2E/DX2 analytically  !
 ! A54   A(17,18,24)           125.5277         calculate D2E/DX2 analytically  !
 ! A55   A(16,19,20)           125.9088         calculate D2E/DX2 analytically  !
 ! A56   A(16,19,21)           125.5505         calculate D2E/DX2 analytically  !
 ! A57   A(20,19,21)           108.5406         calculate D2E/DX2 analytically  !
 ! A58   A(19,20,23)           110.1419         calculate D2E/DX2 analytically  !
 ! A59   A(19,20,25)           124.9774         calculate D2E/DX2 analytically  !
 ! A60   A(23,20,25)           124.8722         calculate D2E/DX2 analytically  !
 ! A61   A(19,21,22)           106.4584         calculate D2E/DX2 analytically  !
 ! A62   A(19,21,26)           133.6977         calculate D2E/DX2 analytically  !
 ! A63   A(22,21,26)           119.7881         calculate D2E/DX2 analytically  !
 ! A64   A(21,22,23)           106.1178         calculate D2E/DX2 analytically  !
 ! A65   A(21,22,27)           120.0214         calculate D2E/DX2 analytically  !
 ! A66   A(23,22,27)           133.7973         calculate D2E/DX2 analytically  !
 ! A67   A(20,23,22)           108.711          calculate D2E/DX2 analytically  !
 ! A68   A(20,23,24)           125.9148         calculate D2E/DX2 analytically  !
 ! A69   A(22,23,24)           125.3671         calculate D2E/DX2 analytically  !
 ! A70   A(18,24,23)           128.3253         calculate D2E/DX2 analytically  !
 ! A71   A(18,24,30)           115.8996         calculate D2E/DX2 analytically  !
 ! A72   A(23,24,30)           115.7739         calculate D2E/DX2 analytically  !
 ! A73   A(5,25,9)              90.0004         calculate D2E/DX2 analytically  !
 ! A74   A(5,25,12)             89.9857         calculate D2E/DX2 analytically  !
 ! A75   A(9,25,20)             90.0176         calculate D2E/DX2 analytically  !
 ! A76   A(12,25,20)            89.9952         calculate D2E/DX2 analytically  !
 ! A77   A(21,26,44)           119.6887         calculate D2E/DX2 analytically  !
 ! A78   A(21,26,56)           122.0097         calculate D2E/DX2 analytically  !
 ! A79   A(44,26,56)           118.2975         calculate D2E/DX2 analytically  !
 ! A80   A(22,27,45)           119.5715         calculate D2E/DX2 analytically  !
 ! A81   A(22,27,54)           122.2845         calculate D2E/DX2 analytically  !
 ! A82   A(45,27,54)           118.1323         calculate D2E/DX2 analytically  !
 ! A83   A(13,28,42)           119.5368         calculate D2E/DX2 analytically  !
 ! A84   A(13,28,50)           122.2797         calculate D2E/DX2 analytically  !
 ! A85   A(42,28,50)           118.1749         calculate D2E/DX2 analytically  !
 ! A86   A(17,29,43)           119.6856         calculate D2E/DX2 analytically  !
 ! A87   A(17,29,52)           122.0209         calculate D2E/DX2 analytically  !
 ! A88   A(43,29,52)           118.2845         calculate D2E/DX2 analytically  !
 ! A89   A(10,34,37)           119.6834         calculate D2E/DX2 analytically  !
 ! A90   A(10,34,59)           122.026          calculate D2E/DX2 analytically  !
 ! A91   A(37,34,59)           118.2805         calculate D2E/DX2 analytically  !
 ! A92   A(14,35,36)           119.5532         calculate D2E/DX2 analytically  !
 ! A93   A(14,35,60)           122.2926         calculate D2E/DX2 analytically  !
 ! A94   A(36,35,60)           118.1465         calculate D2E/DX2 analytically  !
 ! A95   A(35,36,37)           120.3969         calculate D2E/DX2 analytically  !
 ! A96   A(35,36,61)           120.4091         calculate D2E/DX2 analytically  !
 ! A97   A(37,36,61)           119.192          calculate D2E/DX2 analytically  !
 ! A98   A(34,37,36)           120.4833         calculate D2E/DX2 analytically  !
 ! A99   A(34,37,58)           120.37           calculate D2E/DX2 analytically  !
 ! A100  A(36,37,58)           119.1443         calculate D2E/DX2 analytically  !
 ! A101  A(1,38,39)            119.5426         calculate D2E/DX2 analytically  !
 ! A102  A(1,38,46)            122.3003         calculate D2E/DX2 analytically  !
 ! A103  A(39,38,46)           118.1479         calculate D2E/DX2 analytically  !
 ! A104  A(38,39,40)           120.4057         calculate D2E/DX2 analytically  !
 ! A105  A(38,39,47)           120.4017         calculate D2E/DX2 analytically  !
 ! A106  A(40,39,47)           119.1913         calculate D2E/DX2 analytically  !
 ! A107  A(39,40,41)           120.4827         calculate D2E/DX2 analytically  !
 ! A108  A(39,40,48)           119.1431         calculate D2E/DX2 analytically  !
 ! A109  A(41,40,48)           120.3722         calculate D2E/DX2 analytically  !
 ! A110  A(2,41,40)            119.6857         calculate D2E/DX2 analytically  !
 ! A111  A(2,41,49)            122.0322         calculate D2E/DX2 analytically  !
 ! A112  A(40,41,49)           118.2723         calculate D2E/DX2 analytically  !
 ! A113  A(28,42,43)           120.4163         calculate D2E/DX2 analytically  !
 ! A114  A(28,42,51)           120.402          calculate D2E/DX2 analytically  !
 ! A115  A(43,42,51)           119.1802         calculate D2E/DX2 analytically  !
 ! A116  A(29,43,42)           120.4653         calculate D2E/DX2 analytically  !
 ! A117  A(29,43,53)           120.3787         calculate D2E/DX2 analytically  !
 ! A118  A(42,43,53)           119.1539         calculate D2E/DX2 analytically  !
 ! A119  A(26,44,45)           120.4622         calculate D2E/DX2 analytically  !
 ! A120  A(26,44,57)           120.3899         calculate D2E/DX2 analytically  !
 ! A121  A(45,44,57)           119.1469         calculate D2E/DX2 analytically  !
 ! A122  A(27,45,44)           120.3894         calculate D2E/DX2 analytically  !
 ! A123  A(27,45,55)           120.4083         calculate D2E/DX2 analytically  !
 ! A124  A(44,45,55)           119.1996         calculate D2E/DX2 analytically  !
 ! A125  L(5,25,20,12,-1)      179.9809         calculate D2E/DX2 analytically  !
 ! A126  L(9,25,12,20,-1)      180.0129         calculate D2E/DX2 analytically  !
 ! A127  L(5,25,20,12,-2)      179.7201         calculate D2E/DX2 analytically  !
 ! A128  L(9,25,12,20,-2)      180.2233         calculate D2E/DX2 analytically  !
 ! D1    D(3,1,2,4)              1.4162         calculate D2E/DX2 analytically  !
 ! D2    D(3,1,2,41)           178.9256         calculate D2E/DX2 analytically  !
 ! D3    D(38,1,2,4)           179.1521         calculate D2E/DX2 analytically  !
 ! D4    D(38,1,2,41)           -3.3385         calculate D2E/DX2 analytically  !
 ! D5    D(2,1,3,5)             -0.8883         calculate D2E/DX2 analytically  !
 ! D6    D(2,1,3,7)            179.391          calculate D2E/DX2 analytically  !
 ! D7    D(38,1,3,5)          -178.1728         calculate D2E/DX2 analytically  !
 ! D8    D(38,1,3,7)             2.1066         calculate D2E/DX2 analytically  !
 ! D9    D(2,1,38,39)            2.6599         calculate D2E/DX2 analytically  !
 ! D10   D(2,1,38,46)         -178.4663         calculate D2E/DX2 analytically  !
 ! D11   D(3,1,38,39)          179.6468         calculate D2E/DX2 analytically  !
 ! D12   D(3,1,38,46)           -1.4794         calculate D2E/DX2 analytically  !
 ! D13   D(1,2,4,5)             -1.5026         calculate D2E/DX2 analytically  !
 ! D14   D(1,2,4,6)            179.3531         calculate D2E/DX2 analytically  !
 ! D15   D(41,2,4,5)          -178.5119         calculate D2E/DX2 analytically  !
 ! D16   D(41,2,4,6)             2.3438         calculate D2E/DX2 analytically  !
 ! D17   D(1,2,41,40)            2.6015         calculate D2E/DX2 analytically  !
 ! D18   D(1,2,41,49)         -178.5568         calculate D2E/DX2 analytically  !
 ! D19   D(4,2,41,40)          179.2965         calculate D2E/DX2 analytically  !
 ! D20   D(4,2,41,49)           -1.8618         calculate D2E/DX2 analytically  !
 ! D21   D(1,3,5,4)             -0.0586         calculate D2E/DX2 analytically  !
 ! D22   D(1,3,5,25)          -179.4454         calculate D2E/DX2 analytically  !
 ! D23   D(7,3,5,4)            179.6603         calculate D2E/DX2 analytically  !
 ! D24   D(7,3,5,25)             0.2735         calculate D2E/DX2 analytically  !
 ! D25   D(1,3,7,8)            179.6623         calculate D2E/DX2 analytically  !
 ! D26   D(1,3,7,33)            -0.1798         calculate D2E/DX2 analytically  !
 ! D27   D(5,3,7,8)             -0.0111         calculate D2E/DX2 analytically  !
 ! D28   D(5,3,7,33)          -179.8531         calculate D2E/DX2 analytically  !
 ! D29   D(2,4,5,3)              0.9663         calculate D2E/DX2 analytically  !
 ! D30   D(2,4,5,25)          -179.6477         calculate D2E/DX2 analytically  !
 ! D31   D(6,4,5,3)           -179.8936         calculate D2E/DX2 analytically  !
 ! D32   D(6,4,5,25)            -0.5076         calculate D2E/DX2 analytically  !
 ! D33   D(2,4,6,11)           179.2817         calculate D2E/DX2 analytically  !
 ! D34   D(2,4,6,32)            -1.0013         calculate D2E/DX2 analytically  !
 ! D35   D(5,4,6,11)             0.2836         calculate D2E/DX2 analytically  !
 ! D36   D(5,4,6,32)          -179.9994         calculate D2E/DX2 analytically  !
 ! D37   D(3,5,25,9)            -0.5268         calculate D2E/DX2 analytically  !
 ! D38   D(3,5,25,12)          179.6964         calculate D2E/DX2 analytically  !
 ! D39   D(4,5,25,9)          -179.8243         calculate D2E/DX2 analytically  !
 ! D40   D(4,5,25,12)            0.3989         calculate D2E/DX2 analytically  !
 ! D41   D(4,6,11,12)           -0.0284         calculate D2E/DX2 analytically  !
 ! D42   D(4,6,11,13)          179.5381         calculate D2E/DX2 analytically  !
 ! D43   D(32,6,11,12)        -179.7457         calculate D2E/DX2 analytically  !
 ! D44   D(32,6,11,13)          -0.1792         calculate D2E/DX2 analytically  !
 ! D45   D(3,7,8,9)              0.3047         calculate D2E/DX2 analytically  !
 ! D46   D(3,7,8,10)           179.2302         calculate D2E/DX2 analytically  !
 ! D47   D(33,7,8,9)          -179.8534         calculate D2E/DX2 analytically  !
 ! D48   D(33,7,8,10)           -0.9279         calculate D2E/DX2 analytically  !
 ! D49   D(7,8,9,15)          -179.8648         calculate D2E/DX2 analytically  !
 ! D50   D(7,8,9,25)            -0.7991         calculate D2E/DX2 analytically  !
 ! D51   D(10,8,9,15)            1.0571         calculate D2E/DX2 analytically  !
 ! D52   D(10,8,9,25)         -179.8772         calculate D2E/DX2 analytically  !
 ! D53   D(7,8,10,14)          179.2433         calculate D2E/DX2 analytically  !
 ! D54   D(7,8,10,34)            2.4506         calculate D2E/DX2 analytically  !
 ! D55   D(9,8,10,14)           -1.6746         calculate D2E/DX2 analytically  !
 ! D56   D(9,8,10,34)         -178.4672         calculate D2E/DX2 analytically  !
 ! D57   D(8,9,15,14)           -0.0339         calculate D2E/DX2 analytically  !
 ! D58   D(8,9,15,16)          179.6187         calculate D2E/DX2 analytically  !
 ! D59   D(25,9,15,14)        -179.1011         calculate D2E/DX2 analytically  !
 ! D60   D(25,9,15,16)           0.5514         calculate D2E/DX2 analytically  !
 ! D61   D(8,9,25,5)             0.7719         calculate D2E/DX2 analytically  !
 ! D62   D(8,9,25,20)         -179.5081         calculate D2E/DX2 analytically  !
 ! D63   D(15,9,25,5)          179.7031         calculate D2E/DX2 analytically  !
 ! D64   D(15,9,25,20)          -0.5768         calculate D2E/DX2 analytically  !
 ! D65   D(8,10,14,15)           1.5963         calculate D2E/DX2 analytically  !
 ! D66   D(8,10,14,35)         179.2641         calculate D2E/DX2 analytically  !
 ! D67   D(34,10,14,15)        178.9246         calculate D2E/DX2 analytically  !
 ! D68   D(34,10,14,35)         -3.4077         calculate D2E/DX2 analytically  !
 ! D69   D(8,10,34,37)         179.159          calculate D2E/DX2 analytically  !
 ! D70   D(8,10,34,59)          -2.0234         calculate D2E/DX2 analytically  !
 ! D71   D(14,10,34,37)          2.7037         calculate D2E/DX2 analytically  !
 ! D72   D(14,10,34,59)       -178.4788         calculate D2E/DX2 analytically  !
 ! D73   D(6,11,12,18)         179.7009         calculate D2E/DX2 analytically  !
 ! D74   D(6,11,12,25)           0.0512         calculate D2E/DX2 analytically  !
 ! D75   D(13,11,12,18)          0.074          calculate D2E/DX2 analytically  !
 ! D76   D(13,11,12,25)       -179.5756         calculate D2E/DX2 analytically  !
 ! D77   D(6,11,13,17)         179.3123         calculate D2E/DX2 analytically  !
 ! D78   D(6,11,13,28)           2.1029         calculate D2E/DX2 analytically  !
 ! D79   D(12,11,13,17)         -1.0585         calculate D2E/DX2 analytically  !
 ! D80   D(12,11,13,28)       -178.2679         calculate D2E/DX2 analytically  !
 ! D81   D(11,12,18,17)          0.9236         calculate D2E/DX2 analytically  !
 ! D82   D(11,12,18,24)       -179.8222         calculate D2E/DX2 analytically  !
 ! D83   D(25,12,18,17)       -179.4271         calculate D2E/DX2 analytically  !
 ! D84   D(25,12,18,24)         -0.1729         calculate D2E/DX2 analytically  !
 ! D85   D(11,12,25,5)          -0.1866         calculate D2E/DX2 analytically  !
 ! D86   D(11,12,25,20)       -179.9067         calculate D2E/DX2 analytically  !
 ! D87   D(18,12,25,5)        -179.7852         calculate D2E/DX2 analytically  !
 ! D88   D(18,12,25,20)          0.4947         calculate D2E/DX2 analytically  !
 ! D89   D(11,13,17,18)          1.5557         calculate D2E/DX2 analytically  !
 ! D90   D(11,13,17,29)        178.9084         calculate D2E/DX2 analytically  !
 ! D91   D(28,13,17,18)        179.2291         calculate D2E/DX2 analytically  !
 ! D92   D(28,13,17,29)         -3.4182         calculate D2E/DX2 analytically  !
 ! D93   D(11,13,28,42)        179.5943         calculate D2E/DX2 analytically  !
 ! D94   D(11,13,28,50)         -1.4973         calculate D2E/DX2 analytically  !
 ! D95   D(17,13,28,42)          2.6908         calculate D2E/DX2 analytically  !
 ! D96   D(17,13,28,50)       -178.4008         calculate D2E/DX2 analytically  !
 ! D97   D(10,14,15,9)          -1.0205         calculate D2E/DX2 analytically  !
 ! D98   D(10,14,15,16)        179.3247         calculate D2E/DX2 analytically  !
 ! D99   D(35,14,15,9)        -178.2222         calculate D2E/DX2 analytically  !
 ! D100  D(35,14,15,16)          2.1231         calculate D2E/DX2 analytically  !
 ! D101  D(10,14,35,36)          2.7007         calculate D2E/DX2 analytically  !
 ! D102  D(10,14,35,60)       -178.3272         calculate D2E/DX2 analytically  !
 ! D103  D(15,14,35,36)        179.5959         calculate D2E/DX2 analytically  !
 ! D104  D(15,14,35,60)         -1.432          calculate D2E/DX2 analytically  !
 ! D105  D(9,15,16,19)          -0.373          calculate D2E/DX2 analytically  !
 ! D106  D(9,15,16,31)        -179.4371         calculate D2E/DX2 analytically  !
 ! D107  D(14,15,16,19)        179.2233         calculate D2E/DX2 analytically  !
 ! D108  D(14,15,16,31)          0.1592         calculate D2E/DX2 analytically  !
 ! D109  D(15,16,19,20)          0.4474         calculate D2E/DX2 analytically  !
 ! D110  D(15,16,19,21)       -179.4179         calculate D2E/DX2 analytically  !
 ! D111  D(31,16,19,20)        179.5104         calculate D2E/DX2 analytically  !
 ! D112  D(31,16,19,21)         -0.3548         calculate D2E/DX2 analytically  !
 ! D113  D(13,17,18,12)         -1.5685         calculate D2E/DX2 analytically  !
 ! D114  D(13,17,18,24)        179.1736         calculate D2E/DX2 analytically  !
 ! D115  D(29,17,18,12)       -178.3902         calculate D2E/DX2 analytically  !
 ! D116  D(29,17,18,24)          2.3519         calculate D2E/DX2 analytically  !
 ! D117  D(13,17,29,43)          2.7016         calculate D2E/DX2 analytically  !
 ! D118  D(13,17,29,52)       -178.4125         calculate D2E/DX2 analytically  !
 ! D119  D(18,17,29,43)        179.1888         calculate D2E/DX2 analytically  !
 ! D120  D(18,17,29,52)         -1.9253         calculate D2E/DX2 analytically  !
 ! D121  D(12,18,24,23)         -0.1598         calculate D2E/DX2 analytically  !
 ! D122  D(12,18,24,30)       -179.7366         calculate D2E/DX2 analytically  !
 ! D123  D(17,18,24,23)        178.9714         calculate D2E/DX2 analytically  !
 ! D124  D(17,18,24,30)         -0.6054         calculate D2E/DX2 analytically  !
 ! D125  D(16,19,20,23)       -179.6738         calculate D2E/DX2 analytically  !
 ! D126  D(16,19,20,25)         -0.6853         calculate D2E/DX2 analytically  !
 ! D127  D(21,19,20,23)          0.2106         calculate D2E/DX2 analytically  !
 ! D128  D(21,19,20,25)        179.1991         calculate D2E/DX2 analytically  !
 ! D129  D(16,19,21,22)       -179.2024         calculate D2E/DX2 analytically  !
 ! D130  D(16,19,21,26)         -2.0337         calculate D2E/DX2 analytically  !
 ! D131  D(20,19,21,22)          0.9127         calculate D2E/DX2 analytically  !
 ! D132  D(20,19,21,26)        178.0814         calculate D2E/DX2 analytically  !
 ! D133  D(19,20,23,22)         -1.2321         calculate D2E/DX2 analytically  !
 ! D134  D(19,20,23,24)        179.6946         calculate D2E/DX2 analytically  !
 ! D135  D(25,20,23,22)        179.7781         calculate D2E/DX2 analytically  !
 ! D136  D(25,20,23,24)          0.7049         calculate D2E/DX2 analytically  !
 ! D137  D(19,20,25,9)           0.6397         calculate D2E/DX2 analytically  !
 ! D138  D(19,20,25,12)       -179.5835         calculate D2E/DX2 analytically  !
 ! D139  D(23,20,25,9)         179.4822         calculate D2E/DX2 analytically  !
 ! D140  D(23,20,25,12)         -0.7411         calculate D2E/DX2 analytically  !
 ! D141  D(19,21,22,23)         -1.589          calculate D2E/DX2 analytically  !
 ! D142  D(19,21,22,27)       -179.0765         calculate D2E/DX2 analytically  !
 ! D143  D(26,21,22,23)       -179.2305         calculate D2E/DX2 analytically  !
 ! D144  D(26,21,22,27)          3.2819         calculate D2E/DX2 analytically  !
 ! D145  D(19,21,26,44)       -179.2357         calculate D2E/DX2 analytically  !
 ! D146  D(19,21,26,56)          1.5104         calculate D2E/DX2 analytically  !
 ! D147  D(22,21,26,44)         -2.3648         calculate D2E/DX2 analytically  !
 ! D148  D(22,21,26,56)        178.3813         calculate D2E/DX2 analytically  !
 ! D149  D(21,22,23,20)          1.7698         calculate D2E/DX2 analytically  !
 ! D150  D(21,22,23,24)       -179.1506         calculate D2E/DX2 analytically  !
 ! D151  D(27,22,23,20)        178.7555         calculate D2E/DX2 analytically  !
 ! D152  D(27,22,23,24)         -2.1649         calculate D2E/DX2 analytically  !
 ! D153  D(21,22,27,45)         -2.8535         calculate D2E/DX2 analytically  !
 ! D154  D(21,22,27,54)        178.4126         calculate D2E/DX2 analytically  !
 ! D155  D(23,22,27,45)       -179.5086         calculate D2E/DX2 analytically  !
 ! D156  D(23,22,27,54)          1.7575         calculate D2E/DX2 analytically  !
 ! D157  D(20,23,24,18)         -0.138          calculate D2E/DX2 analytically  !
 ! D158  D(20,23,24,30)        179.4392         calculate D2E/DX2 analytically  !
 ! D159  D(22,23,24,18)       -179.0616         calculate D2E/DX2 analytically  !
 ! D160  D(22,23,24,30)          0.5156         calculate D2E/DX2 analytically  !
 ! D161  D(21,26,44,45)          1.0585         calculate D2E/DX2 analytically  !
 ! D162  D(21,26,44,57)       -179.3146         calculate D2E/DX2 analytically  !
 ! D163  D(56,26,44,45)       -179.66           calculate D2E/DX2 analytically  !
 ! D164  D(56,26,44,57)         -0.0331         calculate D2E/DX2 analytically  !
 ! D165  D(22,27,45,44)          1.5422         calculate D2E/DX2 analytically  !
 ! D166  D(22,27,45,55)       -179.057          calculate D2E/DX2 analytically  !
 ! D167  D(54,27,45,44)       -179.6716         calculate D2E/DX2 analytically  !
 ! D168  D(54,27,45,55)         -0.2708         calculate D2E/DX2 analytically  !
 ! D169  D(13,28,42,43)         -1.2829         calculate D2E/DX2 analytically  !
 ! D170  D(13,28,42,51)        179.1541         calculate D2E/DX2 analytically  !
 ! D171  D(50,28,42,43)        179.764          calculate D2E/DX2 analytically  !
 ! D172  D(50,28,42,51)          0.201          calculate D2E/DX2 analytically  !
 ! D173  D(17,29,43,42)         -1.3013         calculate D2E/DX2 analytically  !
 ! D174  D(17,29,43,53)        179.2357         calculate D2E/DX2 analytically  !
 ! D175  D(52,29,43,42)        179.7714         calculate D2E/DX2 analytically  !
 ! D176  D(52,29,43,53)          0.3085         calculate D2E/DX2 analytically  !
 ! D177  D(10,34,37,36)         -1.3357         calculate D2E/DX2 analytically  !
 ! D178  D(10,34,37,58)        179.2306         calculate D2E/DX2 analytically  !
 ! D179  D(59,34,37,36)        179.8027         calculate D2E/DX2 analytically  !
 ! D180  D(59,34,37,58)          0.3689         calculate D2E/DX2 analytically  !
 ! D181  D(14,35,36,37)         -1.3252         calculate D2E/DX2 analytically  !
 ! D182  D(14,35,36,61)        179.19           calculate D2E/DX2 analytically  !
 ! D183  D(60,35,36,37)        179.6603         calculate D2E/DX2 analytically  !
 ! D184  D(60,35,36,61)          0.1755         calculate D2E/DX2 analytically  !
 ! D185  D(35,36,37,34)          0.6366         calculate D2E/DX2 analytically  !
 ! D186  D(35,36,37,58)       -179.9228         calculate D2E/DX2 analytically  !
 ! D187  D(61,36,37,34)       -179.8724         calculate D2E/DX2 analytically  !
 ! D188  D(61,36,37,58)         -0.4318         calculate D2E/DX2 analytically  !
 ! D189  D(1,38,39,40)          -1.2795         calculate D2E/DX2 analytically  !
 ! D190  D(1,38,39,47)         179.1383         calculate D2E/DX2 analytically  !
 ! D191  D(46,38,39,40)        179.8002         calculate D2E/DX2 analytically  !
 ! D192  D(46,38,39,47)          0.2179         calculate D2E/DX2 analytically  !
 ! D193  D(38,39,40,41)          0.5573         calculate D2E/DX2 analytically  !
 ! D194  D(38,39,40,48)       -179.9539         calculate D2E/DX2 analytically  !
 ! D195  D(47,39,40,41)       -179.8554         calculate D2E/DX2 analytically  !
 ! D196  D(47,39,40,48)         -0.3666         calculate D2E/DX2 analytically  !
 ! D197  D(39,40,41,2)          -1.2285         calculate D2E/DX2 analytically  !
 ! D198  D(39,40,41,49)        179.8864         calculate D2E/DX2 analytically  !
 ! D199  D(48,40,41,2)         179.289          calculate D2E/DX2 analytically  !
 ! D200  D(48,40,41,49)          0.4039         calculate D2E/DX2 analytically  !
 ! D201  D(28,42,43,29)          0.5818         calculate D2E/DX2 analytically  !
 ! D202  D(28,42,43,53)       -179.9488         calculate D2E/DX2 analytically  !
 ! D203  D(51,42,43,29)       -179.85           calculate D2E/DX2 analytically  !
 ! D204  D(51,42,43,53)         -0.3805         calculate D2E/DX2 analytically  !
 ! D205  D(26,44,45,27)         -0.6391         calculate D2E/DX2 analytically  !
 ! D206  D(26,44,45,55)        179.9529         calculate D2E/DX2 analytically  !
 ! D207  D(57,44,45,27)        179.7294         calculate D2E/DX2 analytically  !
 ! D208  D(57,44,45,55)          0.3214         calculate D2E/DX2 analytically  !
 --------------------------------------------------------------------------------
 Trust Radius=3.00D-01 FncErr=1.00D-07 GrdErr=1.00D-06
 Number of steps in this run=    366 maximum allowed number of steps=    366.
 GradGradGradGradGradGradGradGradGradGradGradGradGradGradGradGradGradGrad

 Leave Link  103 at Wed Jan 16 23:01:33 2019, MaxMem= 16374562816 cpu:         5.0
 (Enter /sw/xc40cle6/gaussian09/d.01/precompiled/g09/l202.exe)
 Stoichiometry    C36H4F16FeN4(5)
 Framework group  C1[X(C36H4F16FeN4)]
 Deg. of freedom   177
 Full point group                 C1      NOp   1
 Largest Abelian subgroup         C1      NOp   1
 Largest concise Abelian subgroup C1      NOp   1
                         Standard orientation:                         
 ---------------------------------------------------------------------
 Center     Atomic      Atomic             Coordinates (Angstroms)
 Number     Number       Type             X           Y           Z
 ---------------------------------------------------------------------
      1          6           0       -3.687619   -2.287280    0.008351
      2          6           0       -2.757977   -3.346924   -0.012895
      3          6           0       -2.905415   -1.063977   -0.000009
      4          6           0       -1.439334   -2.737769    0.000909
      5          7           0       -1.587086   -1.390240   -0.004897
      6          6           0       -0.228962   -3.427225    0.000406
      7          6           0       -3.427851    0.228960    0.002986
      8          6           0       -2.738233    1.439686    0.001896
      9          7           0       -1.390720    1.587022   -0.008250
     10          6           0       -3.346962    2.758577   -0.010675
     11          6           0        1.063658   -2.904825   -0.000564
     12          7           0        1.389702   -1.586534   -0.001761
     13          6           0        2.286825   -3.687106    0.008500
     14          6           0       -2.286898    3.687858    0.010790
     15          6           0       -1.063966    2.905174   -0.003067
     16          6           0        0.228768    3.427178   -0.003016
     17          6           0        3.346404   -2.757633   -0.012467
     18          6           0        2.737165   -1.439087    0.004191
     19          6           0        1.439113    2.737429   -0.000991
     20          7           0        1.586269    1.389812   -0.007198
     21          6           0        2.758145    3.346098    0.010942
     22          6           0        3.687418    2.286062   -0.010119
     23          6           0        2.904462    1.063264    0.004436
     24          6           0        3.426608   -0.229010    0.008404
     25         26           0       -0.000281    0.000362   -0.000896
     26          6           0        3.207893    4.656160   -0.012652
     27          6           0        5.048323    2.555315    0.014459
     28          6           0        2.556318   -5.047674   -0.016963
     29          6           0        4.656292   -3.206836    0.013176
     30          1           0        4.504201   -0.300068    0.008504
     31          1           0        0.299915    4.504598    0.011112
     32          1           0       -0.299969   -4.504792    0.005618
     33          1           0       -4.505372    0.299993    0.009296
     34          6           0       -4.656682    3.208121    0.018638
     35          6           0       -2.556365    5.048673   -0.010311
     36          6           0       -3.864329    5.482980    0.004237
     37          6           0       -4.913984    4.562912    0.012105
     38          6           0       -5.048249   -2.556892   -0.016203
     39          6           0       -5.482112   -3.864990   -0.005716
     40          6           0       -4.561980   -4.914334    0.002462
     41          6           0       -3.207322   -4.656778    0.011721
     42          6           0        3.864407   -5.481515   -0.006457
     43          6           0        4.914036   -4.561448    0.002575
     44          6           0        4.563363    4.913521   -0.007149
     45          6           0        5.483347    3.863085   -0.000225
     46          9           0       -5.966636   -1.589282   -0.027834
     47          9           0       -6.783389   -4.142913   -0.011632
     48          9           0       -5.008695   -6.168028    0.011583
     49          9           0       -2.367787   -5.692205    0.021630
     50          9           0        1.588285   -5.965629   -0.030171
     51          9           0        4.142406   -6.782971   -0.013554
     52          9           0        5.691359   -2.367010    0.026219
     53          9           0        6.167750   -5.008145    0.011590
     54          9           0        5.966360    1.586949    0.027319
     55          9           0        6.784947    4.140061    0.004027
     56          9           0        2.368122    5.691438   -0.026136
     57          9           0        5.010738    6.166993   -0.015850
     58          9           0       -6.167527    5.009803    0.024574
     59          9           0       -5.692121    2.368655    0.030078
     60          9           0       -1.588300    5.966968   -0.024335
     61          9           0       -4.142011    6.784418    0.000634
 ---------------------------------------------------------------------
 Rotational constants (GHZ):      0.0382942      0.0382902      0.0191464
 Leave Link  202 at Wed Jan 16 23:01:33 2019, MaxMem= 16374562816 cpu:         1.5
 (Enter /sw/xc40cle6/gaussian09/d.01/precompiled/g09/l301.exe)
 Standard basis: TZVP (5D, 7F)
 Ernie: Thresh=  0.10000D-02 Tol=  0.10000D-05 Strict=F.
 There are  1180 symmetry adapted cartesian basis functions of A   symmetry.
 There are  1121 symmetry adapted basis functions of A   symmetry.
  1121 basis functions,  2078 primitive gaussians,  1180 cartesian basis functions
   211 alpha electrons      207 beta electrons
       nuclear repulsion energy      8565.1643519616 Hartrees.
 IExCor= 1009 DFT=T Ex+Corr=PBE1PBE ExCW=0 ScaHFX=  0.250000
 ScaDFX=  0.750000  0.750000  1.000000  1.000000 ScalE2=  1.000000  1.000000
 IRadAn=      0 IRanWt=     -1 IRanGd=            0 ICorTp=0 IEmpDi=  4
 NAtoms=   61 NActive=   61 NUniq=   61 SFac= 1.00D+00 NAtFMM=   60 NAOKFM=T Big=T
 Integral buffers will be    131072 words long.
 Raffenetti 2 integral format.
 Two-electron integral symmetry is turned on.
 Force inversion solution in PCM.
 ------------------------------------------------------------------------------
 Polarizable Continuum Model (PCM)
 =================================
 Model                : PCM (using non-symmetric T matrix).
 Atomic radii         : SMD-Coulomb.
 Polarization charges : Total charges.
 Charge compensation  : None.
 Solution method      : Matrix inversion.
 Cavity type          : VdW (van der Waals Surface) (Alpha=1.000).
 Cavity algorithm     : GePol (No added spheres)
                        Default sphere list used, NSphG=   61.
                        Lebedev-Laikov grids with approx.  5.0 points / Ang**2.
                        Smoothing algorithm: Karplus/York (Gamma=1.0000).
                        Polarization charges: spherical gaussians, with
                                              point-specific exponents (IZeta= 3).
                        Self-potential: point-specific (ISelfS= 7).
                        Self-field    : sphere-specific E.n sum rule (ISelfD= 2).
 1st derivatives      : Analytical E(r).r(x)/FMM algorithm (CHGder, D1EAlg=3).
                        Cavity 1st derivative terms included.
 2nd derivatives      : Analytical E(r).r(xy)/FMM algorithm (CHGder, D2EAlg=3).
                        Cavity 2nd derivative terms included.
 Solvent              : Water, Eps=  78.355300 Eps(inf)=   1.777849
 ------------------------------------------------------------------------------
 GePol: Number of generator spheres                  =      61
 GePol: Total number of spheres                      =      61
 GePol: Number of exposed spheres                    =      61 (100.00%)
 GePol: Number of points                             =    5057
 GePol: Average weight of points                     =       0.12
 GePol: Minimum weight of points                     =   0.19D-11
 GePol: Maximum weight of points                     =    0.21501
 GePol: Number of points with low weight             =     267
 GePol: Fraction of low-weight points (<1% of avg)   =       5.28%
 GePol: Cavity surface area                          =    619.514 Ang**2
 GePol: Cavity volume                                =    650.567 Ang**3
 ------------------------------------------------------------------------------
 Atomic radii for non-electrostatic terms: SMD-CDS.
 ------------------------------------------------------------------------------
 PCM non-electrostatic energy =         0.0250493207 Hartrees.
 Nuclear repulsion after PCM non-electrostatic terms =     8565.1894012823 Hartrees.
 Leave Link  301 at Wed Jan 16 23:01:33 2019, MaxMem= 16374562816 cpu:         3.2
 (Enter /sw/xc40cle6/gaussian09/d.01/precompiled/g09/l302.exe)
 NPDir=0 NMtPBC=     1 NCelOv=     1 NCel=       1 NClECP=     1 NCelD=      1
         NCelK=      1 NCelE2=     1 NClLst=     1 CellRange=     0.0.
 One-electron integrals computed using PRISM.
 NBasis=  1121 RedAO= T EigKep=  4.40D-06  NBF=  1121
 NBsUse=  1121 1.00D-06 EigRej= -1.00D+00 NBFU=  1121
 Precomputing XC quadrature grid using
 IXCGrd= 4 IRadAn=           0 IRanWt=          -1 IRanGd=           0 AccXCQ= 0.00D+00.
 Generated NRdTot=       0 NPtTot=           0 NUsed=           0 NTot=          32
 NSgBfM=  1071  1071  1071  1071  1071 MxSgAt=    61 MxSgA2=    61.
 Leave Link  302 at Wed Jan 16 23:01:37 2019, MaxMem= 16374562816 cpu:       111.2
 (Enter /sw/xc40cle6/gaussian09/d.01/precompiled/g09/l303.exe)
 DipDrv:  MaxL=1.
 Leave Link  303 at Wed Jan 16 23:01:37 2019, MaxMem= 16374562816 cpu:        10.8
 (Enter /sw/xc40cle6/gaussian09/d.01/precompiled/g09/l401.exe)
 ExpMin= 4.20D-02 ExpMax= 3.01D+05 ExpMxC= 2.91D+03 IAcc=2 IRadAn=         4 AccDes= 0.00D+00
 Harris functional with IExCor= 1009 and IRadAn=       4 diagonalized for initial guess.
 HarFok:  IExCor= 1009 AccDes= 0.00D+00 IRadAn=         4 IDoV= 1 UseB2=F ITyADJ=14
 ICtDFT=  3500011 ScaDFX=  1.000000  1.000000  1.000000  1.000000
 FoFCou: FMM=F IPFlag=           0 FMFlag=      100000 FMFlg1=        2001
         NFxFlg=           0 DoJE=T BraDBF=F KetDBF=T FulRan=T
         wScrn=  0.000000 ICntrl=     500 IOpCl=  0 I1Cent=   200000004 NGrid=           0
         NMat0=    1 NMatS0=      1 NMatT0=    0 NMatD0=    1 NMtDS0=    0 NMtDT0=    0
 Petite list used in FoFCou.
 Harris En= -4451.99639872984    
 JPrj=0 DoOrth=F DoCkMO=F.
 Initial guess <Sx>= 0.0000 <Sy>= 0.0000 <Sz>= 2.0000 <S**2>= 6.0000 S= 2.0000
 Leave Link  401 at Wed Jan 16 23:01:42 2019, MaxMem= 16374562816 cpu:       155.5
 (Enter /sw/xc40cle6/gaussian09/d.01/precompiled/g09/l502.exe)
 UHF open shell SCF:
 Using DIIS extrapolation, IDIIS=  1040.
 Integral symmetry usage will be decided dynamically.
 IVT=     8235342 IEndB=     8235342 NGot= 16374562816 MDV= 16371725055
 LenX= 16371725055 LenY= 16370331475
 Requested convergence on RMS density matrix=1.00D-08 within2000 cycles.
 Requested convergence on MAX density matrix=1.00D-06.
 Requested convergence on             energy=1.00D-06.
 No special actions if energy rises.
 Fock matrices will be formed incrementally for  20 cycles.

 Cycle   1  Pass 1  IDiag  1:
 FoFJK:  IHMeth= 1 ICntrl=       0 DoSepK=F KAlg= 0 I1Cent=   0 FoldK=F
 IRaf= 590000000 NMat=   1 IRICut=       1 DoRegI=T DoRafI=F ISym2E= 0.
 FoFCou: FMM=T IPFlag=           0 FMFlag=      100000 FMFlg1=        2001
         NFxFlg=           0 DoJE=F BraDBF=F KetDBF=F FulRan=T
         wScrn=  0.000000 ICntrl=       0 IOpCl=  1 I1Cent=           0 NGrid=           0
         NMat0=    1 NMatS0=      1 NMatT0=    0 NMatD0=    1 NMtDS0=    0 NMtDT0=    0
 Symmetry not used in FoFCou.
 FMM levels:  10  Number of levels for PrismC:   9
 Inv3:  Mode=1 IEnd=    76719747.
 Iteration    1 A*A^-1 deviation from unit magnitude is 8.88D-15 for   2671.
 Iteration    1 A*A^-1 deviation from orthogonality  is 7.13D-15 for   5055   2087.
 Iteration    1 A^-1*A deviation from unit magnitude is 8.66D-15 for   1238.
 Iteration    1 A^-1*A deviation from orthogonality  is 2.92D-10 for   4383   4317.
 Iteration    2 A*A^-1 deviation from unit magnitude is 1.58D-14 for    791.
 Iteration    2 A*A^-1 deviation from orthogonality  is 1.16D-14 for   4794    151.
 Iteration    2 A^-1*A deviation from unit magnitude is 1.55D-15 for    144.
 Iteration    2 A^-1*A deviation from orthogonality  is 8.18D-16 for   4886    150.
 E= -4451.09807820191    
 DIIS: error= 6.59D-02 at cycle   1 NSaved=   1.
 NSaved= 1 IEnMin= 1 EnMin= -4451.09807820191     IErMin= 1 ErrMin= 6.59D-02
 ErrMax= 6.59D-02  0.00D+00 EMaxC= 1.00D-01 BMatC= 5.62D+00 BMatP= 5.62D+00
 IDIUse=3 WtCom= 3.41D-01 WtEn= 6.59D-01
 Coeff-Com:  0.100D+01
 Coeff-En:   0.100D+01
 Coeff:      0.100D+01
 Gap=     0.031 Goal=   None    Shift=    0.000
 Gap=     0.287 Goal=   None    Shift=    0.000
 GapD=    0.031 DampG=0.250 DampE=0.250 DampFc=0.1250 IDamp=-1.
 Damping current iteration by 1.25D-01
 RMSDP=1.02D-02 MaxDP=8.71D-01              OVMax= 9.51D-01

 Cycle   2  Pass 1  IDiag  1:
 RMSU=  7.24D-04    CP:  9.64D-01
 E= -4451.39601093273     Delta-E=       -0.297932730824 Rises=F Damp=T
 DIIS: error= 2.16D-02 at cycle   2 NSaved=   2.
 NSaved= 2 IEnMin= 2 EnMin= -4451.39601093273     IErMin= 2 ErrMin= 2.16D-02
 ErrMax= 2.16D-02  0.00D+00 EMaxC= 1.00D-01 BMatC= 1.97D+00 BMatP= 5.62D+00
 IDIUse=3 WtCom= 7.84D-01 WtEn= 2.16D-01
 Coeff-Com: -0.613D+00 0.161D+01
 Coeff-En:   0.000D+00 0.100D+01
 Coeff:     -0.480D+00 0.148D+01
 Gap=     0.093 Goal=   None    Shift=    0.000
 Gap=     0.008 Goal=   None    Shift=    0.000
 RMSDP=5.87D-03 MaxDP=5.61D-01 DE=-2.98D-01 OVMax= 9.95D-01

 Cycle   3  Pass 1  IDiag  1:
 RMSU=  4.24D-03    CP:  8.30D-01  2.76D+00
 E= -4451.69695107092     Delta-E=       -0.300940138191 Rises=F Damp=F
 DIIS: error= 5.17D-02 at cycle   3 NSaved=   3.
 NSaved= 3 IEnMin= 3 EnMin= -4451.69695107092     IErMin= 2 ErrMin= 2.16D-02
 ErrMax= 5.17D-02  0.00D+00 EMaxC= 1.00D-01 BMatC= 1.87D+00 BMatP= 1.97D+00
 IDIUse=3 WtCom= 4.83D-01 WtEn= 5.17D-01
 Coeff-Com: -0.668D+00 0.113D+01 0.539D+00
 Coeff-En:   0.000D+00 0.106D+00 0.894D+00
 Coeff:     -0.323D+00 0.600D+00 0.722D+00
 Gap=     0.029 Goal=   None    Shift=    0.000
 Gap=     0.028 Goal=   None    Shift=    0.000
 RMSDP=5.48D-03 MaxDP=3.98D-01 DE=-3.01D-01 OVMax= 9.80D-01

 Cycle   4  Pass 1  IDiag  1:
 RMSU=  2.64D-03    CP:  8.82D-01  3.00D+00 -7.42D-02
 E= -4447.57997475359     Delta-E=        4.116976317335 Rises=F Damp=F
 DIIS: error= 2.08D-01 at cycle   4 NSaved=   4.
 NSaved= 4 IEnMin= 3 EnMin= -4451.69695107092     IErMin= 2 ErrMin= 2.16D-02
 ErrMax= 2.08D-01  0.00D+00 EMaxC= 1.00D-01 BMatC= 3.06D+01 BMatP= 1.87D+00
 IDIUse=2 WtCom= 0.00D+00 WtEn= 1.00D+00
 Coeff-En:   0.000D+00 0.000D+00 0.847D+00 0.153D+00
 Coeff:      0.000D+00 0.000D+00 0.847D+00 0.153D+00
 Gap=     0.062 Goal=   None    Shift=    0.000
 Gap=     0.006 Goal=   None    Shift=    0.000
 RMSDP=2.22D-03 MaxDP=3.94D-01 DE= 4.12D+00 OVMax= 1.00D+00

 Cycle   5  Pass 1  IDiag  1:
 RMSU=  1.64D-03    CP:  9.14D-01  2.27D+00  6.31D-02  7.57D-01
 E= -4451.92765448637     Delta-E=       -4.347679732782 Rises=F Damp=F
 DIIS: error= 2.62D-02 at cycle   5 NSaved=   5.
 NSaved= 5 IEnMin= 5 EnMin= -4451.92765448637     IErMin= 2 ErrMin= 2.16D-02
 ErrMax= 2.62D-02  0.00D+00 EMaxC= 1.00D-01 BMatC= 8.78D-01 BMatP= 1.87D+00
 IDIUse=3 WtCom= 7.38D-01 WtEn= 2.62D-01
 Coeff-Com: -0.290D+00 0.407D+00 0.432D+00-0.232D-01 0.474D+00
 Coeff-En:   0.000D+00 0.000D+00 0.304D+00 0.000D+00 0.696D+00
 Coeff:     -0.214D+00 0.301D+00 0.399D+00-0.171D-01 0.532D+00
 Gap=     0.058 Goal=   None    Shift=    0.000
 Gap=     0.116 Goal=   None    Shift=    0.000
 RMSDP=2.51D-03 MaxDP=2.21D-01 DE=-4.35D+00 OVMax= 1.13D-01

 Cycle   6  Pass 1  IDiag  1:
 RMSU=  9.02D-04    CP:  8.44D-01  3.00D+00  2.35D-01  5.02D-01  9.78D-01
 E= -4452.07771743166     Delta-E=       -0.150062945293 Rises=F Damp=F
 DIIS: error= 1.17D-02 at cycle   6 NSaved=   6.
 NSaved= 6 IEnMin= 6 EnMin= -4452.07771743166     IErMin= 6 ErrMin= 1.17D-02
 ErrMax= 1.17D-02  0.00D+00 EMaxC= 1.00D-01 BMatC= 8.42D-02 BMatP= 8.78D-01
 IDIUse=3 WtCom= 8.83D-01 WtEn= 1.17D-01
 Coeff-Com:  0.260D-02 0.192D-01 0.175D+00-0.169D-01 0.234D+00 0.586D+00
 Coeff-En:   0.000D+00 0.000D+00 0.000D+00 0.000D+00 0.000D+00 0.100D+01
 Coeff:      0.230D-02 0.169D-01 0.154D+00-0.149D-01 0.207D+00 0.635D+00
 Gap=     0.093 Goal=   None    Shift=    0.000
 Gap=     0.098 Goal=   None    Shift=    0.000
 RMSDP=3.59D-04 MaxDP=2.63D-02 DE=-1.50D-01 OVMax= 5.45D-02

 Cycle   7  Pass 1  IDiag  1:
 RMSU=  3.50D-04    CP:  8.46D-01  3.00D+00  2.38D-01  5.11D-01  9.94D-01
                    CP:  9.41D-01
 E= -4452.09187991797     Delta-E=       -0.014162486303 Rises=F Damp=F
 DIIS: error= 4.08D-03 at cycle   7 NSaved=   7.
 NSaved= 7 IEnMin= 7 EnMin= -4452.09187991797     IErMin= 7 ErrMin= 4.08D-03
 ErrMax= 4.08D-03  0.00D+00 EMaxC= 1.00D-01 BMatC= 1.31D-02 BMatP= 8.42D-02
 IDIUse=3 WtCom= 9.59D-01 WtEn= 4.08D-02
 Coeff-Com:  0.708D-01-0.768D-01-0.163D-01-0.156D-02-0.817D-01 0.171D+00
 Coeff-Com:  0.934D+00
 Coeff-En:   0.000D+00 0.000D+00 0.000D+00 0.000D+00 0.000D+00 0.000D+00
 Coeff-En:   0.100D+01
 Coeff:      0.679D-01-0.736D-01-0.156D-01-0.150D-02-0.783D-01 0.164D+00
 Coeff:      0.937D+00
 Gap=     0.115 Goal=   None    Shift=    0.000
 Gap=     0.097 Goal=   None    Shift=    0.000
 RMSDP=2.57D-04 MaxDP=1.46D-02 DE=-1.42D-02 OVMax= 3.35D-02

 Cycle   8  Pass 1  IDiag  1:
 RMSU=  1.71D-04    CP:  8.45D-01  2.99D+00  2.53D-01  4.81D-01  9.97D-01
                    CP:  1.10D+00  1.22D+00
 E= -4452.09463270295     Delta-E=       -0.002752784987 Rises=F Damp=F
 DIIS: error= 9.81D-04 at cycle   8 NSaved=   8.
 NSaved= 8 IEnMin= 8 EnMin= -4452.09463270295     IErMin= 8 ErrMin= 9.81D-04
 ErrMax= 9.81D-04  0.00D+00 EMaxC= 1.00D-01 BMatC= 2.68D-03 BMatP= 1.31D-02
 IDIUse=3 WtCom= 9.90D-01 WtEn= 9.81D-03
 Coeff-Com:  0.527D-02-0.159D-02-0.228D-02 0.141D-03-0.470D-01-0.456D-01
 Coeff-Com:  0.528D+00 0.564D+00
 Coeff-En:   0.000D+00 0.000D+00 0.000D+00 0.000D+00 0.000D+00 0.000D+00
 Coeff-En:   0.000D+00 0.100D+01
 Coeff:      0.522D-02-0.157D-02-0.226D-02 0.139D-03-0.466D-01-0.452D-01
 Coeff:      0.522D+00 0.568D+00
 Gap=     0.102 Goal=   None    Shift=    0.000
 Gap=     0.096 Goal=   None    Shift=    0.000
 RMSDP=9.90D-05 MaxDP=9.12D-03 DE=-2.75D-03 OVMax= 5.36D-03

 Cycle   9  Pass 1  IDiag  1:
 RMSU=  4.83D-05    CP:  8.43D-01  3.00D+00  2.51D-01  4.85D-01  9.95D-01
                    CP:  1.07D+00  1.26D+00  7.36D-01
 E= -4452.09519969312     Delta-E=       -0.000566990167 Rises=F Damp=F
 DIIS: error= 2.80D-04 at cycle   9 NSaved=   9.
 NSaved= 9 IEnMin= 9 EnMin= -4452.09519969312     IErMin= 9 ErrMin= 2.80D-04
 ErrMax= 2.80D-04  0.00D+00 EMaxC= 1.00D-01 BMatC= 1.76D-04 BMatP= 2.68D-03
 IDIUse=3 WtCom= 9.97D-01 WtEn= 2.80D-03
 Coeff-Com: -0.365D-02 0.445D-02 0.275D-02 0.242D-03-0.546D-02-0.274D-01
 Coeff-Com:  0.125D+00 0.243D+00 0.662D+00
 Coeff-En:   0.000D+00 0.000D+00 0.000D+00 0.000D+00 0.000D+00 0.000D+00
 Coeff-En:   0.000D+00 0.000D+00 0.100D+01
 Coeff:     -0.364D-02 0.444D-02 0.274D-02 0.241D-03-0.545D-02-0.273D-01
 Coeff:      0.124D+00 0.242D+00 0.663D+00
 Gap=     0.102 Goal=   None    Shift=    0.000
 Gap=     0.096 Goal=   None    Shift=    0.000
 RMSDP=3.43D-05 MaxDP=2.28D-03 DE=-5.67D-04 OVMax= 1.45D-03

 Cycle  10  Pass 1  IDiag  1:
 RMSU=  2.73D-05    CP:  8.44D-01  3.00D+00  2.52D-01  4.84D-01  9.95D-01
                    CP:  1.07D+00  1.25D+00  7.14D-01  7.44D-01
 E= -4452.09523843203     Delta-E=       -0.000038738910 Rises=F Damp=F
 DIIS: error= 1.26D-04 at cycle  10 NSaved=  10.
 NSaved=10 IEnMin=10 EnMin= -4452.09523843203     IErMin=10 ErrMin= 1.26D-04
 ErrMax= 1.26D-04  0.00D+00 EMaxC= 1.00D-01 BMatC= 2.27D-05 BMatP= 1.76D-04
 IDIUse=3 WtCom= 9.99D-01 WtEn= 1.26D-03
 Coeff-Com: -0.267D-02 0.285D-02 0.174D-02 0.596D-04 0.290D-02-0.846D-02
 Coeff-Com: -0.352D-02 0.475D-01 0.281D+00 0.678D+00
 Coeff-En:   0.000D+00 0.000D+00 0.000D+00 0.000D+00 0.000D+00 0.000D+00
 Coeff-En:   0.000D+00 0.000D+00 0.000D+00 0.100D+01
 Coeff:     -0.266D-02 0.284D-02 0.174D-02 0.595D-04 0.290D-02-0.845D-02
 Coeff:     -0.352D-02 0.475D-01 0.281D+00 0.679D+00
 Gap=     0.102 Goal=   None    Shift=    0.000
 Gap=     0.096 Goal=   None    Shift=    0.000
 RMSDP=2.52D-05 MaxDP=2.57D-03 DE=-3.87D-05 OVMax= 8.41D-04

 Cycle  11  Pass 1  IDiag  1:
 RMSU=  1.27D-05    CP:  8.43D-01  3.00D+00  2.51D-01  4.84D-01  9.93D-01
                    CP:  1.07D+00  1.25D+00  7.28D-01  8.94D-01  8.38D-01
 E= -4452.09524520311     Delta-E=       -0.000006771079 Rises=F Damp=F
 DIIS: error= 4.24D-05 at cycle  11 NSaved=  11.
 NSaved=11 IEnMin=11 EnMin= -4452.09524520311     IErMin=11 ErrMin= 4.24D-05
 ErrMax= 4.24D-05  0.00D+00 EMaxC= 1.00D-01 BMatC= 6.79D-06 BMatP= 2.27D-05
 IDIUse=1 WtCom= 1.00D+00 WtEn= 0.00D+00
 Coeff-Com:  0.598D-03-0.799D-03-0.879D-03 0.259D-04 0.933D-03 0.237D-02
 Coeff-Com: -0.308D-01-0.406D-01-0.671D-01 0.330D+00 0.807D+00
 Coeff:      0.598D-03-0.799D-03-0.879D-03 0.259D-04 0.933D-03 0.237D-02
 Coeff:     -0.308D-01-0.406D-01-0.671D-01 0.330D+00 0.807D+00
 Gap=     0.102 Goal=   None    Shift=    0.000
 Gap=     0.096 Goal=   None    Shift=    0.000
 RMSDP=1.14D-05 MaxDP=1.18D-03 DE=-6.77D-06 OVMax= 7.78D-04

 Cycle  12  Pass 1  IDiag  1:
 RMSU=  5.23D-06    CP:  8.43D-01  3.00D+00  2.51D-01  4.84D-01  9.93D-01
                    CP:  1.07D+00  1.26D+00  7.40D-01  9.10D-01  9.97D-01
                    CP:  9.23D-01
 E= -4452.09524799042     Delta-E=       -0.000002787305 Rises=F Damp=F
 DIIS: error= 1.84D-05 at cycle  12 NSaved=  12.
 NSaved=12 IEnMin=12 EnMin= -4452.09524799042     IErMin=12 ErrMin= 1.84D-05
 ErrMax= 1.84D-05  0.00D+00 EMaxC= 1.00D-01 BMatC= 7.61D-07 BMatP= 6.79D-06
 IDIUse=1 WtCom= 1.00D+00 WtEn= 0.00D+00
 Coeff-Com:  0.707D-04-0.286D-04-0.159D-03-0.161D-04 0.212D-03 0.151D-02
 Coeff-Com: -0.770D-02-0.159D-01-0.436D-01 0.343D-01 0.262D+00 0.769D+00
 Coeff:      0.707D-04-0.286D-04-0.159D-03-0.161D-04 0.212D-03 0.151D-02
 Coeff:     -0.770D-02-0.159D-01-0.436D-01 0.343D-01 0.262D+00 0.769D+00
 Gap=     0.102 Goal=   None    Shift=    0.000
 Gap=     0.096 Goal=   None    Shift=    0.000
 RMSDP=3.15D-06 MaxDP=2.38D-04 DE=-2.79D-06 OVMax= 2.41D-04

 Cycle  13  Pass 1  IDiag  1:
 RMSU=  2.00D-06    CP:  8.43D-01  3.00D+00  2.51D-01  4.84D-01  9.93D-01
                    CP:  1.07D+00  1.26D+00  7.42D-01  9.09D-01  1.03D+00
                    CP:  1.01D+00  1.18D+00
 E= -4452.09524833741     Delta-E=       -0.000000346992 Rises=F Damp=F
 DIIS: error= 1.28D-05 at cycle  13 NSaved=  13.
 NSaved=13 IEnMin=13 EnMin= -4452.09524833741     IErMin=13 ErrMin= 1.28D-05
 ErrMax= 1.28D-05  0.00D+00 EMaxC= 1.00D-01 BMatC= 2.90D-07 BMatP= 7.61D-07
 IDIUse=1 WtCom= 1.00D+00 WtEn= 0.00D+00
 Coeff-Com: -0.541D-04 0.984D-04 0.110D-03-0.105D-04-0.172D-03 0.294D-03
 Coeff-Com:  0.477D-02 0.274D-02-0.307D-02-0.833D-01-0.103D+00 0.427D+00
 Coeff-Com:  0.754D+00
 Coeff:     -0.541D-04 0.984D-04 0.110D-03-0.105D-04-0.172D-03 0.294D-03
 Coeff:      0.477D-02 0.274D-02-0.307D-02-0.833D-01-0.103D+00 0.427D+00
 Coeff:      0.754D+00
 Gap=     0.102 Goal=   None    Shift=    0.000
 Gap=     0.096 Goal=   None    Shift=    0.000
 RMSDP=2.06D-06 MaxDP=1.50D-04 DE=-3.47D-07 OVMax= 1.97D-04

 Cycle  14  Pass 1  IDiag  1:
 RMSU=  8.93D-07    CP:  8.43D-01  3.00D+00  2.51D-01  4.83D-01  9.93D-01
                    CP:  1.07D+00  1.26D+00  7.41D-01  9.11D-01  1.05D+00
                    CP:  1.07D+00  1.41D+00  1.08D+00
 E= -4452.09524849051     Delta-E=       -0.000000153101 Rises=F Damp=F
 DIIS: error= 6.08D-06 at cycle  14 NSaved=  14.
 NSaved=14 IEnMin=14 EnMin= -4452.09524849051     IErMin=14 ErrMin= 6.08D-06
 ErrMax= 6.08D-06  0.00D+00 EMaxC= 1.00D-01 BMatC= 4.84D-08 BMatP= 2.90D-07
 IDIUse=1 WtCom= 1.00D+00 WtEn= 0.00D+00
 Coeff-Com: -0.582D-04 0.629D-04 0.115D-03-0.105D-05-0.116D-04-0.197D-03
 Coeff-Com:  0.290D-02 0.432D-02 0.933D-02-0.405D-01-0.107D+00-0.343D-02
 Coeff-Com:  0.307D+00 0.827D+00
 Coeff:     -0.582D-04 0.629D-04 0.115D-03-0.105D-05-0.116D-04-0.197D-03
 Coeff:      0.290D-02 0.432D-02 0.933D-02-0.405D-01-0.107D+00-0.343D-02
 Coeff:      0.307D+00 0.827D+00
 Gap=     0.102 Goal=   None    Shift=    0.000
 Gap=     0.096 Goal=   None    Shift=    0.000
 RMSDP=1.15D-06 MaxDP=6.95D-05 DE=-1.53D-07 OVMax= 1.02D-04

 Cycle  15  Pass 1  IDiag  1:
 RMSU=  4.42D-07    CP:  8.43D-01  3.00D+00  2.51D-01  4.83D-01  9.93D-01
                    CP:  1.07D+00  1.26D+00  7.42D-01  9.13D-01  1.06D+00
                    CP:  1.10D+00  1.56D+00  1.24D+00  1.12D+00
 E= -4452.09524851842     Delta-E=       -0.000000027914 Rises=F Damp=F
 DIIS: error= 3.83D-06 at cycle  15 NSaved=  15.
 NSaved=15 IEnMin=15 EnMin= -4452.09524851842     IErMin=15 ErrMin= 3.83D-06
 ErrMax= 3.83D-06  0.00D+00 EMaxC= 1.00D-01 BMatC= 2.59D-08 BMatP= 4.84D-08
 IDIUse=1 WtCom= 1.00D+00 WtEn= 0.00D+00
 Coeff-Com: -0.455D-04 0.492D-04 0.633D-04-0.187D-06 0.327D-04-0.205D-03
 Coeff-Com:  0.810D-03 0.216D-02 0.622D-02-0.110D-01-0.514D-01-0.746D-01
 Coeff-Com:  0.586D-01 0.535D+00 0.534D+00
 Coeff:     -0.455D-04 0.492D-04 0.633D-04-0.187D-06 0.327D-04-0.205D-03
 Coeff:      0.810D-03 0.216D-02 0.622D-02-0.110D-01-0.514D-01-0.746D-01
 Coeff:      0.586D-01 0.535D+00 0.534D+00
 Gap=     0.102 Goal=   None    Shift=    0.000
 Gap=     0.096 Goal=   None    Shift=    0.000
 RMSDP=4.57D-07 MaxDP=3.37D-05 DE=-2.79D-08 OVMax= 3.81D-05

 Cycle  16  Pass 1  IDiag  1:
 RMSU=  1.93D-07    CP:  8.43D-01  3.00D+00  2.51D-01  4.83D-01  9.93D-01
                    CP:  1.07D+00  1.26D+00  7.43D-01  9.13D-01  1.06D+00
                    CP:  1.11D+00  1.60D+00  1.33D+00  1.24D+00  7.32D-01
 E= -4452.09524852787     Delta-E=       -0.000000009450 Rises=F Damp=F
 DIIS: error= 1.20D-06 at cycle  16 NSaved=  16.
 NSaved=16 IEnMin=16 EnMin= -4452.09524852787     IErMin=16 ErrMin= 1.20D-06
 ErrMax= 1.20D-06  0.00D+00 EMaxC= 1.00D-01 BMatC= 2.46D-09 BMatP= 2.59D-08
 IDIUse=1 WtCom= 1.00D+00 WtEn= 0.00D+00
 Coeff-Com:  0.949D-05-0.102D-04-0.103D-04 0.647D-06-0.548D-05-0.474D-04
 Coeff-Com: -0.304D-03-0.146D-03-0.180D-03 0.387D-02 0.458D-02-0.121D-01
 Coeff-Com: -0.417D-01-0.200D-01 0.135D+00 0.932D+00
 Coeff:      0.949D-05-0.102D-04-0.103D-04 0.647D-06-0.548D-05-0.474D-04
 Coeff:     -0.304D-03-0.146D-03-0.180D-03 0.387D-02 0.458D-02-0.121D-01
 Coeff:     -0.417D-01-0.200D-01 0.135D+00 0.932D+00
 Gap=     0.102 Goal=   None    Shift=    0.000
 Gap=     0.096 Goal=   None    Shift=    0.000
 RMSDP=2.65D-07 MaxDP=2.87D-05 DE=-9.45D-09 OVMax= 5.14D-05

 Cycle  17  Pass 1  IDiag  1:
 RMSU=  1.36D-07    CP:  8.43D-01  3.00D+00  2.51D-01  4.83D-01  9.93D-01
                    CP:  1.07D+00  1.26D+00  7.43D-01  9.13D-01  1.06D+00
                    CP:  1.11D+00  1.62D+00  1.34D+00  1.31D+00  8.84D-01
                    CP:  1.04D+00
 E= -4452.09524852978     Delta-E=       -0.000000001908 Rises=F Damp=F
 DIIS: error= 1.12D-06 at cycle  17 NSaved=  17.
 NSaved=17 IEnMin=17 EnMin= -4452.09524852978     IErMin=17 ErrMin= 1.12D-06
 ErrMax= 1.12D-06  0.00D+00 EMaxC= 1.00D-01 BMatC= 9.17D-10 BMatP= 2.46D-09
 IDIUse=1 WtCom= 1.00D+00 WtEn= 0.00D+00
 Coeff-Com:  0.119D-04-0.126D-04-0.144D-04 0.341D-06-0.821D-05 0.662D-05
 Coeff-Com: -0.270D-03-0.447D-03-0.120D-02 0.405D-02 0.124D-01 0.856D-02
 Coeff-Com: -0.334D-01-0.120D+00-0.412D-01 0.495D+00 0.676D+00
 Coeff:      0.119D-04-0.126D-04-0.144D-04 0.341D-06-0.821D-05 0.662D-05
 Coeff:     -0.270D-03-0.447D-03-0.120D-02 0.405D-02 0.124D-01 0.856D-02
 Coeff:     -0.334D-01-0.120D+00-0.412D-01 0.495D+00 0.676D+00
 Gap=     0.102 Goal=   None    Shift=    0.000
 Gap=     0.096 Goal=   None    Shift=    0.000
 RMSDP=1.42D-07 MaxDP=1.17D-05 DE=-1.91D-09 OVMax= 4.21D-05

 Cycle  18  Pass 1  IDiag  1:
 RMSU=  7.40D-08    CP:  8.43D-01  3.00D+00  2.51D-01  4.83D-01  9.93D-01
                    CP:  1.07D+00  1.26D+00  7.43D-01  9.13D-01  1.06D+00
                    CP:  1.11D+00  1.62D+00  1.35D+00  1.33D+00  8.99D-01
                    CP:  1.43D+00  9.88D-01
 E= -4452.09524853155     Delta-E=       -0.000000001764 Rises=F Damp=F
 DIIS: error= 1.13D-06 at cycle  18 NSaved=  18.
 NSaved=18 IEnMin=18 EnMin= -4452.09524853155     IErMin=17 ErrMin= 1.12D-06
 ErrMax= 1.13D-06  0.00D+00 EMaxC= 1.00D-01 BMatC= 3.82D-10 BMatP= 9.17D-10
 IDIUse=1 WtCom= 1.00D+00 WtEn= 0.00D+00
 Coeff-Com:  0.680D-06-0.923D-06-0.184D-05-0.128D-06-0.603D-06 0.238D-04
 Coeff-Com:  0.123D-04-0.136D-03-0.385D-03 0.290D-03 0.367D-02 0.624D-02
 Coeff-Com:  0.217D-02-0.401D-01-0.651D-01-0.137D+00 0.276D+00 0.954D+00
 Coeff:      0.680D-06-0.923D-06-0.184D-05-0.128D-06-0.603D-06 0.238D-04
 Coeff:      0.123D-04-0.136D-03-0.385D-03 0.290D-03 0.367D-02 0.624D-02
 Coeff:      0.217D-02-0.401D-01-0.651D-01-0.137D+00 0.276D+00 0.954D+00
 Gap=     0.102 Goal=   None    Shift=    0.000
 Gap=     0.096 Goal=   None    Shift=    0.000
 RMSDP=1.18D-07 MaxDP=1.49D-05 DE=-1.76D-09 OVMax= 5.86D-05

 Cycle  19  Pass 1  IDiag  1:
 RMSU=  5.26D-08    CP:  8.43D-01  3.00D+00  2.51D-01  4.83D-01  9.93D-01
                    CP:  1.07D+00  1.26D+00  7.43D-01  9.13D-01  1.06D+00
                    CP:  1.11D+00  1.63D+00  1.35D+00  1.35D+00  9.50D-01
                    CP:  1.55D+00  1.52D+00  1.63D+00
 E= -4452.09524853267     Delta-E=       -0.000000001124 Rises=F Damp=F
 DIIS: error= 1.14D-06 at cycle  19 NSaved=  19.
 NSaved=19 IEnMin=19 EnMin= -4452.09524853267     IErMin=17 ErrMin= 1.12D-06
 ErrMax= 1.14D-06  0.00D+00 EMaxC= 1.00D-01 BMatC= 2.29D-10 BMatP= 3.82D-10
 IDIUse=1 WtCom= 1.00D+00 WtEn= 0.00D+00
 Coeff-Com: -0.207D-05 0.190D-05 0.225D-05-0.129D-06 0.213D-05 0.138D-04
 Coeff-Com:  0.778D-04 0.582D-04 0.166D-03-0.101D-02-0.196D-02-0.347D-03
 Coeff-Com:  0.108D-01 0.196D-01-0.142D-01-0.208D+00-0.104D+00 0.387D+00
 Coeff-Com:  0.912D+00
 Coeff:     -0.207D-05 0.190D-05 0.225D-05-0.129D-06 0.213D-05 0.138D-04
 Coeff:      0.778D-04 0.582D-04 0.166D-03-0.101D-02-0.196D-02-0.347D-03
 Coeff:      0.108D-01 0.196D-01-0.142D-01-0.208D+00-0.104D+00 0.387D+00
 Coeff:      0.912D+00
 Gap=     0.102 Goal=   None    Shift=    0.000
 Gap=     0.096 Goal=   None    Shift=    0.000
 RMSDP=1.22D-07 MaxDP=1.55D-05 DE=-1.12D-09 OVMax= 5.90D-05

 Cycle  20  Pass 1  IDiag  1:
 RMSU=  4.47D-08    CP:  8.43D-01  3.00D+00  2.51D-01  4.83D-01  9.93D-01
                    CP:  1.07D+00  1.26D+00  7.43D-01  9.14D-01  1.06D+00
                    CP:  1.12D+00  1.63D+00  1.36D+00  1.37D+00  9.56D-01
                    CP:  1.74D+00  1.86D+00  2.60D+00  1.84D+00
 E= -4452.09524853351     Delta-E=       -0.000000000837 Rises=F Damp=F
 DIIS: error= 1.15D-06 at cycle  20 NSaved=  20.
[...]
      4 vectors produced by pass722 Test12= 3.81D-13 1.00D-09 XBig12= 7.34D-15 1.75D-09.
      4 vectors produced by pass723 Test12= 3.81D-13 1.00D-09 XBig12= 9.97D-15 2.26D-09.
      4 vectors produced by pass724 Test12= 3.81D-13 1.00D-09 XBig12= 6.68D-15 1.84D-09.
      4 vectors produced by pass725 Test12= 3.81D-13 1.00D-09 XBig12= 7.81D-15 1.81D-09.
      4 vectors produced by pass726 Test12= 3.81D-13 1.00D-09 XBig12= 1.13D-14 2.03D-09.
      4 vectors produced by pass727 Test12= 3.81D-13 1.00D-09 XBig12= 1.19D-14 2.21D-09.
      4 vectors produced by pass728 Test12= 3.81D-13 1.00D-09 XBig12= 5.86D-15 1.51D-09.
      4 vectors produced by pass729 Test12= 3.81D-13 1.00D-09 XBig12= 8.87D-15 1.87D-09.
      4 vectors produced by pass730 Test12= 3.81D-13 1.00D-09 XBig12= 8.90D-15 2.13D-09.
      4 vectors produced by pass731 Test12= 3.81D-13 1.00D-09 XBig12= 8.41D-15 1.94D-09.
      4 vectors produced by pass732 Test12= 3.81D-13 1.00D-09 XBig12= 8.51D-15 2.01D-09.
      4 vectors produced by pass733 Test12= 3.81D-13 1.00D-09 XBig12= 8.67D-15 2.26D-09.
      4 vectors produced by pass734 Test12= 3.81D-13 1.00D-09 XBig12= 6.30D-15 1.88D-09.
      4 vectors produced by pass735 Test12= 3.81D-13 1.00D-09 XBig12= 6.82D-15 1.85D-09.
      4 vectors produced by pass736 Test12= 3.81D-13 1.00D-09 XBig12= 1.02D-14 1.96D-09.
      4 vectors produced by pass737 Test12= 3.81D-13 1.00D-09 XBig12= 7.79D-15 1.89D-09.
      4 vectors produced by pass738 Test12= 3.81D-13 1.00D-09 XBig12= 7.33D-15 1.85D-09.
      4 vectors produced by pass739 Test12= 3.81D-13 1.00D-09 XBig12= 5.93D-15 1.62D-09.
      4 vectors produced by pass740 Test12= 3.81D-13 1.00D-09 XBig12= 6.41D-15 1.94D-09.
      4 vectors produced by pass741 Test12= 3.81D-13 1.00D-09 XBig12= 4.88D-15 1.38D-09.
      4 vectors produced by pass742 Test12= 3.81D-13 1.00D-09 XBig12= 8.68D-15 2.10D-09.
      4 vectors produced by pass743 Test12= 3.81D-13 1.00D-09 XBig12= 5.96D-15 1.88D-09.
      4 vectors produced by pass744 Test12= 3.81D-13 1.00D-09 XBig12= 7.36D-15 1.76D-09.
      4 vectors produced by pass745 Test12= 3.81D-13 1.00D-09 XBig12= 9.78D-15 2.03D-09.
      4 vectors produced by pass746 Test12= 3.81D-13 1.00D-09 XBig12= 7.34D-15 1.91D-09.
      4 vectors produced by pass747 Test12= 3.81D-13 1.00D-09 XBig12= 6.94D-15 2.04D-09.
      4 vectors produced by pass748 Test12= 3.81D-13 1.00D-09 XBig12= 7.83D-15 1.91D-09.
      4 vectors produced by pass749 Test12= 3.81D-13 1.00D-09 XBig12= 6.24D-15 1.64D-09.
      4 vectors produced by pass750 Test12= 3.81D-13 1.00D-09 XBig12= 7.60D-15 2.11D-09.
      4 vectors produced by pass751 Test12= 3.81D-13 1.00D-09 XBig12= 7.45D-15 1.81D-09.
      4 vectors produced by pass752 Test12= 3.81D-13 1.00D-09 XBig12= 5.71D-15 1.78D-09.
      4 vectors produced by pass753 Test12= 3.81D-13 1.00D-09 XBig12= 6.49D-15 1.67D-09.
      4 vectors produced by pass754 Test12= 3.81D-13 1.00D-09 XBig12= 5.99D-15 1.73D-09.
      4 vectors produced by pass755 Test12= 3.81D-13 1.00D-09 XBig12= 7.19D-15 1.80D-09.
      4 vectors produced by pass756 Test12= 3.81D-13 1.00D-09 XBig12= 5.72D-15 1.60D-09.
      4 vectors produced by pass757 Test12= 3.81D-13 1.00D-09 XBig12= 9.34D-15 2.38D-09.
      4 vectors produced by pass758 Test12= 3.81D-13 1.00D-09 XBig12= 7.22D-15 1.61D-09.
      4 vectors produced by pass759 Test12= 3.81D-13 1.00D-09 XBig12= 7.26D-15 1.75D-09.
      4 vectors produced by pass760 Test12= 3.81D-13 1.00D-09 XBig12= 8.67D-15 1.94D-09.
      4 vectors produced by pass761 Test12= 3.81D-13 1.00D-09 XBig12= 5.70D-15 1.75D-09.
      4 vectors produced by pass762 Test12= 3.81D-13 1.00D-09 XBig12= 6.98D-15 1.91D-09.
      4 vectors produced by pass763 Test12= 3.81D-13 1.00D-09 XBig12= 8.06D-15 2.18D-09.
      4 vectors produced by pass764 Test12= 3.81D-13 1.00D-09 XBig12= 9.75D-15 1.93D-09.
      4 vectors produced by pass765 Test12= 3.81D-13 1.00D-09 XBig12= 7.07D-15 1.72D-09.
      4 vectors produced by pass766 Test12= 3.81D-13 1.00D-09 XBig12= 7.41D-15 1.86D-09.
      4 vectors produced by pass767 Test12= 3.81D-13 1.00D-09 XBig12= 9.25D-15 2.02D-09.
      4 vectors produced by pass768 Test12= 3.81D-13 1.00D-09 XBig12= 6.48D-15 1.68D-09.
      4 vectors produced by pass769 Test12= 3.81D-13 1.00D-09 XBig12= 8.06D-15 2.10D-09.
      4 vectors produced by pass770 Test12= 3.81D-13 1.00D-09 XBig12= 6.74D-15 1.71D-09.
      4 vectors produced by pass771 Test12= 3.81D-13 1.00D-09 XBig12= 9.32D-15 1.98D-09.
      4 vectors produced by pass772 Test12= 3.81D-13 1.00D-09 XBig12= 6.95D-15 1.84D-09.
      4 vectors produced by pass773 Test12= 3.81D-13 1.00D-09 XBig12= 7.05D-15 1.82D-09.
      4 vectors produced by pass774 Test12= 3.81D-13 1.00D-09 XBig12= 5.63D-15 1.78D-09.
      4 vectors produced by pass775 Test12= 3.81D-13 1.00D-09 XBig12= 6.59D-15 2.06D-09.
      4 vectors produced by pass776 Test12= 3.81D-13 1.00D-09 XBig12= 9.16D-15 2.14D-09.
      4 vectors produced by pass777 Test12= 3.81D-13 1.00D-09 XBig12= 7.44D-15 1.87D-09.
      4 vectors produced by pass778 Test12= 3.81D-13 1.00D-09 XBig12= 5.49D-15 1.81D-09.
      4 vectors produced by pass779 Test12= 3.81D-13 1.00D-09 XBig12= 8.98D-15 2.01D-09.
      4 vectors produced by pass780 Test12= 3.81D-13 1.00D-09 XBig12= 6.57D-15 1.71D-09.
      4 vectors produced by pass781 Test12= 3.81D-13 1.00D-09 XBig12= 6.39D-15 1.72D-09.
      4 vectors produced by pass782 Test12= 3.81D-13 1.00D-09 XBig12= 6.03D-15 1.93D-09.
      4 vectors produced by pass783 Test12= 3.81D-13 1.00D-09 XBig12= 9.22D-15 2.03D-09.
      4 vectors produced by pass784 Test12= 3.81D-13 1.00D-09 XBig12= 6.77D-15 1.59D-09.
      4 vectors produced by pass785 Test12= 3.81D-13 1.00D-09 XBig12= 7.11D-15 1.91D-09.
      4 vectors produced by pass786 Test12= 3.81D-13 1.00D-09 XBig12= 8.79D-15 1.84D-09.
      4 vectors produced by pass787 Test12= 3.81D-13 1.00D-09 XBig12= 6.10D-15 1.89D-09.
      4 vectors produced by pass788 Test12= 3.81D-13 1.00D-09 XBig12= 7.18D-15 1.95D-09.
      4 vectors produced by pass789 Test12= 3.81D-13 1.00D-09 XBig12= 1.06D-14 2.08D-09.
      4 vectors produced by pass790 Test12= 3.81D-13 1.00D-09 XBig12= 5.48D-15 1.64D-09.
      4 vectors produced by pass791 Test12= 3.81D-13 1.00D-09 XBig12= 6.19D-15 1.55D-09.
      4 vectors produced by pass792 Test12= 3.81D-13 1.00D-09 XBig12= 5.92D-15 1.84D-09.
      4 vectors produced by pass793 Test12= 3.81D-13 1.00D-09 XBig12= 6.56D-15 1.69D-09.
      4 vectors produced by pass794 Test12= 3.81D-13 1.00D-09 XBig12= 7.09D-15 1.64D-09.
      4 vectors produced by pass795 Test12= 3.81D-13 1.00D-09 XBig12= 5.23D-15 1.55D-09.
      4 vectors produced by pass796 Test12= 3.81D-13 1.00D-09 XBig12= 5.70D-15 1.60D-09.
      4 vectors produced by pass797 Test12= 3.81D-13 1.00D-09 XBig12= 7.92D-15 1.97D-09.
      4 vectors produced by pass798 Test12= 3.81D-13 1.00D-09 XBig12= 6.57D-15 1.56D-09.
      4 vectors produced by pass799 Test12= 3.81D-13 1.00D-09 XBig12= 8.44D-15 2.07D-09.
      4 vectors produced by pass800 Test12= 3.81D-13 1.00D-09 XBig12= 7.04D-15 1.70D-09.
      4 vectors produced by pass801 Test12= 3.81D-13 1.00D-09 XBig12= 7.71D-15 1.83D-09.
      4 vectors produced by pass802 Test12= 3.81D-13 1.00D-09 XBig12= 7.90D-15 1.77D-09.
      4 vectors produced by pass803 Test12= 3.81D-13 1.00D-09 XBig12= 8.96D-15 2.16D-09.
      4 vectors produced by pass804 Test12= 3.81D-13 1.00D-09 XBig12= 5.64D-15 1.65D-09.
      4 vectors produced by pass805 Test12= 3.81D-13 1.00D-09 XBig12= 8.27D-15 1.96D-09.
      4 vectors produced by pass806 Test12= 3.81D-13 1.00D-09 XBig12= 7.11D-15 1.64D-09.
      4 vectors produced by pass807 Test12= 3.81D-13 1.00D-09 XBig12= 6.68D-15 1.87D-09.
      4 vectors produced by pass808 Test12= 3.81D-13 1.00D-09 XBig12= 7.03D-15 1.77D-09.
      4 vectors produced by pass809 Test12= 3.81D-13 1.00D-09 XBig12= 7.89D-15 2.00D-09.
      4 vectors produced by pass810 Test12= 3.81D-13 1.00D-09 XBig12= 7.02D-15 1.78D-09.
      4 vectors produced by pass811 Test12= 3.81D-13 1.00D-09 XBig12= 5.52D-15 1.50D-09.
      4 vectors produced by pass812 Test12= 3.81D-13 1.00D-09 XBig12= 7.48D-15 2.03D-09.
      4 vectors produced by pass813 Test12= 3.81D-13 1.00D-09 XBig12= 6.73D-15 1.94D-09.
      4 vectors produced by pass814 Test12= 3.81D-13 1.00D-09 XBig12= 7.90D-15 1.92D-09.
      4 vectors produced by pass815 Test12= 3.81D-13 1.00D-09 XBig12= 9.15D-15 1.96D-09.
      4 vectors produced by pass816 Test12= 3.81D-13 1.00D-09 XBig12= 7.79D-15 1.89D-09.
      4 vectors produced by pass817 Test12= 3.81D-13 1.00D-09 XBig12= 8.25D-15 1.97D-09.
      4 vectors produced by pass818 Test12= 3.81D-13 1.00D-09 XBig12= 8.73D-15 2.15D-09.
      4 vectors produced by pass819 Test12= 3.81D-13 1.00D-09 XBig12= 6.91D-15 1.86D-09.
      4 vectors produced by pass820 Test12= 3.81D-13 1.00D-09 XBig12= 6.84D-15 1.93D-09.
      4 vectors produced by pass821 Test12= 3.81D-13 1.00D-09 XBig12= 6.95D-15 1.68D-09.
      4 vectors produced by pass822 Test12= 3.81D-13 1.00D-09 XBig12= 5.93D-15 1.56D-09.
      4 vectors produced by pass823 Test12= 3.81D-13 1.00D-09 XBig12= 7.86D-15 1.72D-09.
      4 vectors produced by pass824 Test12= 3.81D-13 1.00D-09 XBig12= 7.64D-15 1.70D-09.
      4 vectors produced by pass825 Test12= 3.81D-13 1.00D-09 XBig12= 7.33D-15 1.81D-09.
      4 vectors produced by pass826 Test12= 3.81D-13 1.00D-09 XBig12= 5.22D-15 1.52D-09.
      4 vectors produced by pass827 Test12= 3.81D-13 1.00D-09 XBig12= 8.27D-15 2.23D-09.
      4 vectors produced by pass828 Test12= 3.81D-13 1.00D-09 XBig12= 5.72D-15 1.73D-09.
      4 vectors produced by pass829 Test12= 3.81D-13 1.00D-09 XBig12= 5.82D-15 1.45D-09.
      4 vectors produced by pass830 Test12= 3.81D-13 1.00D-09 XBig12= 7.51D-15 1.72D-09.
      4 vectors produced by pass831 Test12= 3.81D-13 1.00D-09 XBig12= 6.20D-15 1.64D-09.
      4 vectors produced by pass832 Test12= 3.81D-13 1.00D-09 XBig12= 6.38D-15 1.83D-09.
      4 vectors produced by pass833 Test12= 3.81D-13 1.00D-09 XBig12= 6.76D-15 1.71D-09.
      4 vectors produced by pass834 Test12= 3.81D-13 1.00D-09 XBig12= 6.89D-15 1.83D-09.
      4 vectors produced by pass835 Test12= 3.81D-13 1.00D-09 XBig12= 6.49D-15 1.58D-09.
      4 vectors produced by pass836 Test12= 3.81D-13 1.00D-09 XBig12= 5.38D-15 1.76D-09.
      4 vectors produced by pass837 Test12= 3.81D-13 1.00D-09 XBig12= 6.13D-15 1.58D-09.
      4 vectors produced by pass838 Test12= 3.81D-13 1.00D-09 XBig12= 5.35D-15 1.52D-09.
      4 vectors produced by pass839 Test12= 3.81D-13 1.00D-09 XBig12= 5.94D-15 1.77D-09.
      4 vectors produced by pass840 Test12= 3.81D-13 1.00D-09 XBig12= 6.09D-15 1.58D-09.
      4 vectors produced by pass841 Test12= 3.81D-13 1.00D-09 XBig12= 4.50D-15 1.67D-09.
      4 vectors produced by pass842 Test12= 3.81D-13 1.00D-09 XBig12= 6.18D-15 1.63D-09.
      4 vectors produced by pass843 Test12= 3.81D-13 1.00D-09 XBig12= 6.36D-15 1.70D-09.
      4 vectors produced by pass844 Test12= 3.81D-13 1.00D-09 XBig12= 5.96D-15 1.77D-09.
      4 vectors produced by pass845 Test12= 3.81D-13 1.00D-09 XBig12= 7.02D-15 1.91D-09.
      4 vectors produced by pass846 Test12= 3.81D-13 1.00D-09 XBig12= 7.66D-15 1.91D-09.
      4 vectors produced by pass847 Test12= 3.81D-13 1.00D-09 XBig12= 7.30D-15 1.77D-09.
      4 vectors produced by pass848 Test12= 3.81D-13 1.00D-09 XBig12= 7.78D-15 1.89D-09.
      4 vectors produced by pass849 Test12= 3.81D-13 1.00D-09 XBig12= 6.62D-15 1.78D-09.
      4 vectors produced by pass850 Test12= 3.81D-13 1.00D-09 XBig12= 8.23D-15 1.80D-09.
      4 vectors produced by pass851 Test12= 3.81D-13 1.00D-09 XBig12= 6.63D-15 1.58D-09.
      4 vectors produced by pass852 Test12= 3.81D-13 1.00D-09 XBig12= 6.16D-15 1.66D-09.
      4 vectors produced by pass853 Test12= 3.81D-13 1.00D-09 XBig12= 5.95D-15 1.53D-09.
      4 vectors produced by pass854 Test12= 3.81D-13 1.00D-09 XBig12= 5.78D-15 1.56D-09.
      4 vectors produced by pass855 Test12= 3.81D-13 1.00D-09 XBig12= 5.98D-15 1.64D-09.
      4 vectors produced by pass856 Test12= 3.81D-13 1.00D-09 XBig12= 5.34D-15 1.53D-09.
      4 vectors produced by pass857 Test12= 3.81D-13 1.00D-09 XBig12= 6.49D-15 1.78D-09.
      4 vectors produced by pass858 Test12= 3.81D-13 1.00D-09 XBig12= 4.83D-15 1.75D-09.
      4 vectors produced by pass859 Test12= 3.81D-13 1.00D-09 XBig12= 6.52D-15 1.64D-09.
      4 vectors produced by pass860 Test12= 3.81D-13 1.00D-09 XBig12= 5.60D-15 1.40D-09.
      4 vectors produced by pass861 Test12= 3.81D-13 1.00D-09 XBig12= 6.47D-15 1.81D-09.
      4 vectors produced by pass862 Test12= 3.81D-13 1.00D-09 XBig12= 7.12D-15 1.84D-09.
      4 vectors produced by pass863 Test12= 3.81D-13 1.00D-09 XBig12= 5.63D-15 1.50D-09.
      4 vectors produced by pass864 Test12= 3.81D-13 1.00D-09 XBig12= 6.73D-15 1.71D-09.
      4 vectors produced by pass865 Test12= 3.81D-13 1.00D-09 XBig12= 7.06D-15 1.81D-09.
      4 vectors produced by pass866 Test12= 3.81D-13 1.00D-09 XBig12= 6.26D-15 1.75D-09.
      4 vectors produced by pass867 Test12= 3.81D-13 1.00D-09 XBig12= 6.49D-15 1.72D-09.
      4 vectors produced by pass868 Test12= 3.81D-13 1.00D-09 XBig12= 5.54D-15 1.47D-09.
      4 vectors produced by pass869 Test12= 3.81D-13 1.00D-09 XBig12= 5.38D-15 1.45D-09.
      4 vectors produced by pass870 Test12= 3.81D-13 1.00D-09 XBig12= 4.97D-15 1.86D-09.
      4 vectors produced by pass871 Test12= 3.81D-13 1.00D-09 XBig12= 5.87D-15 1.67D-09.
      4 vectors produced by pass872 Test12= 3.81D-13 1.00D-09 XBig12= 7.94D-15 1.97D-09.
      4 vectors produced by pass873 Test12= 3.81D-13 1.00D-09 XBig12= 5.51D-15 1.60D-09.
      4 vectors produced by pass874 Test12= 3.81D-13 1.00D-09 XBig12= 6.33D-15 1.68D-09.
      4 vectors produced by pass875 Test12= 3.81D-13 1.00D-09 XBig12= 6.86D-15 1.89D-09.
      4 vectors produced by pass876 Test12= 3.81D-13 1.00D-09 XBig12= 6.15D-15 1.73D-09.
      4 vectors produced by pass877 Test12= 3.81D-13 1.00D-09 XBig12= 6.34D-15 1.57D-09.
      4 vectors produced by pass878 Test12= 3.81D-13 1.00D-09 XBig12= 6.93D-15 1.97D-09.
      4 vectors produced by pass879 Test12= 3.81D-13 1.00D-09 XBig12= 5.18D-15 1.69D-09.
      4 vectors produced by pass880 Test12= 3.81D-13 1.00D-09 XBig12= 5.88D-15 1.61D-09.
      4 vectors produced by pass881 Test12= 3.81D-13 1.00D-09 XBig12= 7.58D-15 1.94D-09.
      4 vectors produced by pass882 Test12= 3.81D-13 1.00D-09 XBig12= 5.34D-15 1.66D-09.
      4 vectors produced by pass883 Test12= 3.81D-13 1.00D-09 XBig12= 6.09D-15 1.57D-09.
      4 vectors produced by pass884 Test12= 3.81D-13 1.00D-09 XBig12= 4.70D-15 1.90D-09.
      4 vectors produced by pass885 Test12= 3.81D-13 1.00D-09 XBig12= 6.54D-15 1.75D-09.
      4 vectors produced by pass886 Test12= 3.81D-13 1.00D-09 XBig12= 6.57D-15 1.65D-09.
      4 vectors produced by pass887 Test12= 3.81D-13 1.00D-09 XBig12= 4.86D-15 1.59D-09.
      4 vectors produced by pass888 Test12= 3.81D-13 1.00D-09 XBig12= 5.38D-15 1.65D-09.
      4 vectors produced by pass889 Test12= 3.81D-13 1.00D-09 XBig12= 7.50D-15 2.06D-09.
      4 vectors produced by pass890 Test12= 3.81D-13 1.00D-09 XBig12= 5.56D-15 1.43D-09.
      4 vectors produced by pass891 Test12= 3.81D-13 1.00D-09 XBig12= 7.36D-15 1.60D-09.
      4 vectors produced by pass892 Test12= 3.81D-13 1.00D-09 XBig12= 5.35D-15 1.69D-09.
      4 vectors produced by pass893 Test12= 3.81D-13 1.00D-09 XBig12= 8.40D-15 1.83D-09.
      4 vectors produced by pass894 Test12= 3.81D-13 1.00D-09 XBig12= 4.86D-15 1.49D-09.
      4 vectors produced by pass895 Test12= 3.81D-13 1.00D-09 XBig12= 5.80D-15 1.53D-09.
      4 vectors produced by pass896 Test12= 3.81D-13 1.00D-09 XBig12= 5.40D-15 1.57D-09.
      4 vectors produced by pass897 Test12= 3.81D-13 1.00D-09 XBig12= 7.38D-15 1.88D-09.
      4 vectors produced by pass898 Test12= 3.81D-13 1.00D-09 XBig12= 5.06D-15 1.52D-09.
      4 vectors produced by pass899 Test12= 3.81D-13 1.00D-09 XBig12= 5.59D-15 1.44D-09.
      4 vectors produced by pass900 Test12= 3.81D-13 1.00D-09 XBig12= 7.32D-15 1.80D-09.
      4 vectors produced by pass901 Test12= 3.81D-13 1.00D-09 XBig12= 5.64D-15 1.48D-09.
      4 vectors produced by pass902 Test12= 3.81D-13 1.00D-09 XBig12= 5.29D-15 1.47D-09.
      4 vectors produced by pass903 Test12= 3.81D-13 1.00D-09 XBig12= 5.63D-15 1.62D-09.
      4 vectors produced by pass904 Test12= 3.81D-13 1.00D-09 XBig12= 7.34D-15 1.75D-09.
      4 vectors produced by pass905 Test12= 3.81D-13 1.00D-09 XBig12= 5.03D-15 1.55D-09.
      4 vectors produced by pass906 Test12= 3.81D-13 1.00D-09 XBig12= 6.39D-15 1.42D-09.
      4 vectors produced by pass907 Test12= 3.81D-13 1.00D-09 XBig12= 5.82D-15 1.52D-09.
      4 vectors produced by pass908 Test12= 3.81D-13 1.00D-09 XBig12= 6.48D-15 1.68D-09.
      4 vectors produced by pass909 Test12= 3.81D-13 1.00D-09 XBig12= 5.28D-15 1.45D-09.
      4 vectors produced by pass910 Test12= 3.81D-13 1.00D-09 XBig12= 6.73D-15 1.60D-09.
      4 vectors produced by pass911 Test12= 3.81D-13 1.00D-09 XBig12= 5.57D-15 1.60D-09.
      4 vectors produced by pass912 Test12= 3.81D-13 1.00D-09 XBig12= 6.57D-15 1.72D-09.
      4 vectors produced by pass913 Test12= 3.81D-13 1.00D-09 XBig12= 5.25D-15 1.45D-09.
      4 vectors produced by pass914 Test12= 3.81D-13 1.00D-09 XBig12= 7.27D-15 1.67D-09.
      4 vectors produced by pass915 Test12= 3.81D-13 1.00D-09 XBig12= 5.09D-15 1.52D-09.
      4 vectors produced by pass916 Test12= 3.81D-13 1.00D-09 XBig12= 7.85D-15 1.74D-09.
      4 vectors produced by pass917 Test12= 3.81D-13 1.00D-09 XBig12= 6.21D-15 1.80D-09.
      4 vectors produced by pass918 Test12= 3.81D-13 1.00D-09 XBig12= 6.12D-15 1.77D-09.
      4 vectors produced by pass919 Test12= 3.81D-13 1.00D-09 XBig12= 6.08D-15 1.50D-09.
      4 vectors produced by pass920 Test12= 3.81D-13 1.00D-09 XBig12= 4.77D-15 1.46D-09.
      4 vectors produced by pass921 Test12= 3.81D-13 1.00D-09 XBig12= 5.61D-15 1.50D-09.
      4 vectors produced by pass922 Test12= 3.81D-13 1.00D-09 XBig12= 6.03D-15 1.67D-09.
      4 vectors produced by pass923 Test12= 3.81D-13 1.00D-09 XBig12= 4.76D-15 1.67D-09.
      4 vectors produced by pass924 Test12= 3.81D-13 1.00D-09 XBig12= 5.62D-15 1.53D-09.
      4 vectors produced by pass925 Test12= 3.81D-13 1.00D-09 XBig12= 7.20D-15 1.80D-09.
      4 vectors produced by pass926 Test12= 3.81D-13 1.00D-09 XBig12= 7.44D-15 1.86D-09.
      4 vectors produced by pass927 Test12= 3.81D-13 1.00D-09 XBig12= 6.00D-15 1.45D-09.
      4 vectors produced by pass928 Test12= 3.81D-13 1.00D-09 XBig12= 5.55D-15 1.60D-09.
      4 vectors produced by pass929 Test12= 3.81D-13 1.00D-09 XBig12= 5.97D-15 1.88D-09.
      4 vectors produced by pass930 Test12= 3.81D-13 1.00D-09 XBig12= 7.20D-15 1.76D-09.
      4 vectors produced by pass931 Test12= 3.81D-13 1.00D-09 XBig12= 4.91D-15 1.61D-09.
      4 vectors produced by pass932 Test12= 3.81D-13 1.00D-09 XBig12= 5.96D-15 1.40D-09.
      4 vectors produced by pass933 Test12= 3.81D-13 1.00D-09 XBig12= 4.66D-15 1.79D-09.
      4 vectors produced by pass934 Test12= 3.81D-13 1.00D-09 XBig12= 6.99D-15 1.60D-09.
      4 vectors produced by pass935 Test12= 3.81D-13 1.00D-09 XBig12= 6.01D-15 1.58D-09.
      4 vectors produced by pass936 Test12= 3.81D-13 1.00D-09 XBig12= 6.37D-15 1.79D-09.
      4 vectors produced by pass937 Test12= 3.81D-13 1.00D-09 XBig12= 4.46D-15 1.38D-09.
      4 vectors produced by pass938 Test12= 3.81D-13 1.00D-09 XBig12= 5.89D-15 1.53D-09.
      4 vectors produced by pass939 Test12= 3.81D-13 1.00D-09 XBig12= 5.23D-15 1.49D-09.
      4 vectors produced by pass940 Test12= 3.81D-13 1.00D-09 XBig12= 6.65D-15 1.57D-09.
      2 vectors produced by pass941 Test12= 3.81D-13 1.00D-09 XBig12= 2.96D-15 1.43D-09.
 InvSVY:  IOpt=1 It=  1 EMax= 1.55D-15
 Solved reduced A of dimension  6310 with   186 vectors.
 End of Minotr F.D. properties file   721 does not exist.
 End of Minotr F.D. properties file   722 does not exist.
 End of Minotr F.D. properties file   788 does not exist.
 Leave Link 1002 at Thu Jan 17 11:33:58 2019, MaxMem= 16374562816 cpu:   1377731.5
galloc:  could not allocate memory.
