 Entering Gaussian System, Link 0=/sw/xc40cle6/gaussian09/d.01/precompiled/g09/g09
 Initial command:
 /sw/xc40cle6/gaussian09/d.01/precompiled/g09/l1.exe "/lustre/project/k1212/calcinf/1/Gau-50126.inp" -scrdir="/lustre/project/k1212/calcinf/1/"
 Entering Link 1 = /sw/xc40cle6/gaussian09/d.01/precompiled/g09/l1.exe PID=     50127.
  
 Copyright (c) 1988,1990,1992,1993,1995,1998,2003,2009,2013,
            Gaussian, Inc.  All Rights Reserved.
  
 This is part of the Gaussian(R) 09 program.  It is based on
 the Gaussian(R) 03 system (copyright 2003, Gaussian, Inc.),
 the Gaussian(R) 98 system (copyright 1998, Gaussian, Inc.),
 the Gaussian(R) 94 system (copyright 1995, Gaussian, Inc.),
 the Gaussian 92(TM) system (copyright 1992, Gaussian, Inc.),
 the Gaussian 90(TM) system (copyright 1990, Gaussian, Inc.),
 the Gaussian 88(TM) system (copyright 1988, Gaussian, Inc.),
 the Gaussian 86(TM) system (copyright 1986, Carnegie Mellon
 University), and the Gaussian 82(TM) system (copyright 1983,
 Carnegie Mellon University). Gaussian is a federally registered
 trademark of Gaussian, Inc.
  
 This software contains proprietary and confidential information,
 including trade secrets, belonging to Gaussian, Inc.
  
 This software is provided under written license and may be
 used, copied, transmitted, or stored only in accord with that
 written license.
  
 The following legend is applicable only to US Government
 contracts under FAR:
  
                    RESTRICTED RIGHTS LEGEND
  
 Use, reproduction and disclosure by the US Government is
 subject to restrictions as set forth in subparagraphs (a)
 and (c) of the Commercial Computer Software - Restricted
 Rights clause in FAR 52.227-19.
  
 Gaussian, Inc.
 340 Quinnipiac St., Bldg. 40, Wallingford CT 06492
  
  
 ---------------------------------------------------------------
 Warning -- This program may not be used in any manner that
 competes with the business of Gaussian, Inc. or will provide
 assistance to any competitor of Gaussian, Inc.  The licensee
 of this program is prohibited from giving any competitor of
 Gaussian, Inc. access to this program.  By using this program,
 the user acknowledges that Gaussian, Inc. is engaged in the
 business of creating and licensing software in the field of
 computational chemistry and represents and warrants to the
 licensee that it is not a competitor of Gaussian, Inc. and that
 it will not use this program in any manner prohibited above.
 ---------------------------------------------------------------
  

 Cite this work as:
 Gaussian 09, Revision D.01,
 M. J. Frisch, G. W. Trucks, H. B. Schlegel, G. E. Scuseria, 
 M. A. Robb, J. R. Cheeseman, G. Scalmani, V. Barone, B. Mennucci, 
 G. A. Petersson, H. Nakatsuji, M. Caricato, X. Li, H. P. Hratchian, 
 A. F. Izmaylov, J. Bloino, G. Zheng, J. L. Sonnenberg, M. Hada, 
 M. Ehara, K. Toyota, R. Fukuda, J. Hasegawa, M. Ishida, T. Nakajima, 
 Y. Honda, O. Kitao, H. Nakai, T. Vreven, J. A. Montgomery, Jr., 
 J. E. Peralta, F. Ogliaro, M. Bearpark, J. J. Heyd, E. Brothers, 
 K. N. Kudin, V. N. Staroverov, T. Keith, R. Kobayashi, J. Normand, 
 K. Raghavachari, A. Rendell, J. C. Burant, S. S. Iyengar, J. Tomasi, 
 M. Cossi, N. Rega, J. M. Millam, M. Klene, J. E. Knox, J. B. Cross, 
 V. Bakken, C. Adamo, J. Jaramillo, R. Gomperts, R. E. Stratmann, 
 O. Yazyev, A. J. Austin, R. Cammi, C. Pomelli, J. W. Ochterski, 
 R. L. Martin, K. Morokuma, V. G. Zakrzewski, G. A. Voth, 
 P. Salvador, J. J. Dannenberg, S. Dapprich, A. D. Daniels, 
 O. Farkas, J. B. Foresman, J. V. Ortiz, J. Cioslowski, 
 and D. J. Fox, Gaussian, Inc., Wallingford CT, 2013.
 
 ******************************************
 Gaussian 09:  ES64L-G09RevD.01 24-Apr-2013
                12-Dec-2018 
 ******************************************
 %nprocshared=32
 Will use up to   32 processors via shared memory.
 %mem=122GB
 %chk=q.chk
 ----------------------------------------------------------------------
 #pbe1pbe/tzvp scf=(xqc, maxconventionalcycles=2000) SCRF=(SMD,Solvent=
 water) opt
 ----------------------------------------------------------------------
 1/14=-1,18=20,19=15,26=3,38=1/1,3;
 2/9=110,12=2,17=6,18=5,40=1/2;
 3/5=19,7=101,11=2,16=1,25=1,30=1,70=32201,71=1,72=1,74=-13/1,2,3;
 4//1;
 5/5=2,8=3,13=1,38=5,53=1,85=2000/2,8;
 6/7=2,8=2,9=2,10=2,28=1/1;
 7//1,2,3,16;
 1/14=-1,18=20,19=15,26=3/3(2);
 2/9=110/2;
 99//99;
 2/9=110/2;
 3/5=19,7=101,11=2,16=1,25=1,30=1,70=32205,71=1,72=1,74=-13/1,2,3;
 4/5=5,16=3,69=1/1;
 5/5=2,8=3,13=1,38=5,53=1,85=2000/2,8;
 7//1,2,3,16;
 1/14=-1,18=20,19=15,26=3/3(-5);
 2/9=110/2;
 6/7=2,8=2,9=2,10=2,19=2,28=1/1;
 99/9=1/99;
 Leave Link    1 at Wed Dec 12 15:13:20 2018, MaxMem= 16374562816 cpu:         2.9
 (Enter /sw/xc40cle6/gaussian09/d.01/precompiled/g09/l101.exe)
 ------------------
 Dscr 1 Fe(III) S 4
 ------------------
 Symbolic Z-matrix:
 Charge =  1 Multiplicity = 4
 C                     0.75559   4.16089  -0.00298 
 C                    -0.61773   4.18309  -0.0135 
 C                     1.13347   2.81337   0.01966 
 C                    -1.03332   2.84846   0.00819 
 N                     0.03916   1.99972   0.03567 
 C                    -2.33098   2.49161  -0.01822 
 C                     2.41899   2.40796   0.00186 
 C                     2.89245   0.99464  -0.00993 
 N                     2.13243  -0.03602  -0.02946 
 C                     4.29521   0.5848    0.00077 
 C                    -2.84326   1.10079  -0.01635 
 N                    -2.11561   0.04562  -0.01458 
 C                    -4.26435   0.75121  -0.01278 
 C                     4.31249  -0.79706  -0.00419 
 C                     2.91945  -1.20377  -0.02439 
 C                     2.45609  -2.46806  -0.02295 
 C                    -4.33747  -0.62341  -0.00447 
 C                    -2.96196  -1.08149  -0.0072 
 C                     1.01777  -2.83831  -0.00503 
 N                    -0.04156  -1.97771   0.01861 
 C                     0.57895  -4.16337  -0.0114 
 C                    -0.79082  -4.12438   0.00394 
 C                    -1.14864  -2.78273   0.01088 
 C                    -2.56652  -2.35976   0.0023 
 Fe                    0.02766   0.01125   0.02726 
 H                     1.39221   5.04798  -0.03261 
 H                    -1.22712   5.09108  -0.05242 
 H                     3.18915   3.1777   -0.01933 
 H                    -3.08192   3.28455  -0.05044 
 H                     5.15353   1.23517   0.01714 
 H                     5.18237  -1.43302   0.01387 
 H                     3.18031  -3.2852   -0.02515 
 H                     1.16893  -5.07929  -0.02675 
 H                    -1.44677  -4.99525   0.00542 
 H                    -3.33488  -3.1421    0.00371 
 H                    -5.10221   1.43083  -0.01207 
 H                    -5.23393  -1.22439   0.00566 
 
 NAtoms=     37 NQM=       37 NQMF=       0 NMMI=      0 NMMIF=      0
                NMic=       0 NMicF=      0.
                    Isotopes and Nuclear Properties:
 (Nuclear quadrupole moments (NQMom) in fm**2, nuclear magnetic moments (NMagM)
  in nuclear magnetons)

  Atom         1           2           3           4           5           6           7           8           9          10
 IAtWgt=          12          12          12          12          14          12          12          12          14          12
 AtmWgt=  12.0000000  12.0000000  12.0000000  12.0000000  14.0030740  12.0000000  12.0000000  12.0000000  14.0030740  12.0000000
 NucSpn=           0           0           0           0           2           0           0           0           2           0
 AtZEff=   0.0000000   0.0000000   0.0000000   0.0000000   0.0000000   0.0000000   0.0000000   0.0000000   0.0000000   0.0000000
 NQMom=    0.0000000   0.0000000   0.0000000   0.0000000   2.0440000   0.0000000   0.0000000   0.0000000   2.0440000   0.0000000
 NMagM=    0.0000000   0.0000000   0.0000000   0.0000000   0.4037610   0.0000000   0.0000000   0.0000000   0.4037610   0.0000000
 AtZNuc=   6.0000000   6.0000000   6.0000000   6.0000000   7.0000000   6.0000000   6.0000000   6.0000000   7.0000000   6.0000000

  Atom        11          12          13          14          15          16          17          18          19          20
 IAtWgt=          12          14          12          12          12          12          12          12          12          14
 AtmWgt=  12.0000000  14.0030740  12.0000000  12.0000000  12.0000000  12.0000000  12.0000000  12.0000000  12.0000000  14.0030740
 NucSpn=           0           2           0           0           0           0           0           0           0           2
 AtZEff=   0.0000000   0.0000000   0.0000000   0.0000000   0.0000000   0.0000000   0.0000000   0.0000000   0.0000000   0.0000000
 NQMom=    0.0000000   2.0440000   0.0000000   0.0000000   0.0000000   0.0000000   0.0000000   0.0000000   0.0000000   2.0440000
 NMagM=    0.0000000   0.4037610   0.0000000   0.0000000   0.0000000   0.0000000   0.0000000   0.0000000   0.0000000   0.4037610
 AtZNuc=   6.0000000   7.0000000   6.0000000   6.0000000   6.0000000   6.0000000   6.0000000   6.0000000   6.0000000   7.0000000

  Atom        21          22          23          24          25          26          27          28          29          30
 IAtWgt=          12          12          12          12          56           1           1           1           1           1
 AtmWgt=  12.0000000  12.0000000  12.0000000  12.0000000  55.9349393   1.0078250   1.0078250   1.0078250   1.0078250   1.0078250
 NucSpn=           0           0           0           0           0           1           1           1           1           1
 AtZEff=   0.0000000   0.0000000   0.0000000   0.0000000   0.0000000   0.0000000   0.0000000   0.0000000   0.0000000   0.0000000
 NQMom=    0.0000000   0.0000000   0.0000000   0.0000000   0.0000000   0.0000000   0.0000000   0.0000000   0.0000000   0.0000000
 NMagM=    0.0000000   0.0000000   0.0000000   0.0000000   0.0000000   2.7928460   2.7928460   2.7928460   2.7928460   2.7928460
 AtZNuc=   6.0000000   6.0000000   6.0000000   6.0000000  26.0000000   1.0000000   1.0000000   1.0000000   1.0000000   1.0000000

  Atom        31          32          33          34          35          36          37
 IAtWgt=           1           1           1           1           1           1           1
 AtmWgt=   1.0078250   1.0078250   1.0078250   1.0078250   1.0078250   1.0078250   1.0078250
 NucSpn=           1           1           1           1           1           1           1
 AtZEff=   0.0000000   0.0000000   0.0000000   0.0000000   0.0000000   0.0000000   0.0000000
 NQMom=    0.0000000   0.0000000   0.0000000   0.0000000   0.0000000   0.0000000   0.0000000
 NMagM=    2.7928460   2.7928460   2.7928460   2.7928460   2.7928460   2.7928460   2.7928460
 AtZNuc=   1.0000000   1.0000000   1.0000000   1.0000000   1.0000000   1.0000000   1.0000000
 Leave Link  101 at Wed Dec 12 15:13:21 2018, MaxMem= 16374562816 cpu:        24.6
 (Enter /sw/xc40cle6/gaussian09/d.01/precompiled/g09/l103.exe)

 GradGradGradGradGradGradGradGradGradGradGradGradGradGradGradGradGradGrad
 Berny optimization.
 Initialization pass.
                           ----------------------------
                           !    Initial Parameters    !
                           ! (Angstroms and Degrees)  !
 --------------------------                            --------------------------
 ! Name  Definition              Value          Derivative Info.                !
 --------------------------------------------------------------------------------
 ! R1    R(1,2)                  1.3735         estimate D2E/DX2                !
 ! R2    R(1,3)                  1.3997         estimate D2E/DX2                !
 ! R3    R(1,26)                 1.0923         estimate D2E/DX2                !
 ! R4    R(2,4)                  1.398          estimate D2E/DX2                !
 ! R5    R(2,27)                 1.0942         estimate D2E/DX2                !
 ! R6    R(3,5)                  1.3637         estimate D2E/DX2                !
 ! R7    R(3,7)                  1.348          estimate D2E/DX2                !
 ! R8    R(4,5)                  1.368          estimate D2E/DX2                !
 ! R9    R(4,6)                  1.3461         estimate D2E/DX2                !
 ! R10   R(5,25)                 1.9885         estimate D2E/DX2                !
 ! R11   R(6,11)                 1.4822         estimate D2E/DX2                !
 ! R12   R(6,29)                 1.0926         estimate D2E/DX2                !
 ! R13   R(7,8)                  1.4906         estimate D2E/DX2                !
 ! R14   R(7,28)                 1.0891         estimate D2E/DX2                !
 ! R15   R(8,9)                  1.2807         estimate D2E/DX2                !
 ! R16   R(8,10)                 1.4614         estimate D2E/DX2                !
 ! R17   R(9,15)                 1.4082         estimate D2E/DX2                !
 ! R18   R(9,25)                 2.1061         estimate D2E/DX2                !
 ! R19   R(10,14)                1.382          estimate D2E/DX2                !
 ! R20   R(10,30)                1.077          estimate D2E/DX2                !
 ! R21   R(11,12)                1.2817         estimate D2E/DX2                !
 ! R22   R(11,13)                1.4635         estimate D2E/DX2                !
 ! R23   R(12,18)                1.4095         estimate D2E/DX2                !
 ! R24   R(12,25)                2.144          estimate D2E/DX2                !
 ! R25   R(13,17)                1.3766         estimate D2E/DX2                !
 ! R26   R(13,36)                1.0788         estimate D2E/DX2                !
 ! R27   R(14,15)                1.4513         estimate D2E/DX2                !
 ! R28   R(14,31)                1.0777         estimate D2E/DX2                !
 ! R29   R(15,16)                1.3465         estimate D2E/DX2                !
 ! R30   R(16,19)                1.4853         estimate D2E/DX2                !
 ! R31   R(16,32)                1.0919         estimate D2E/DX2                !
 ! R32   R(17,18)                1.4498         estimate D2E/DX2                !
 ! R33   R(17,37)                1.0793         estimate D2E/DX2                !
 ! R34   R(18,24)                1.3381         estimate D2E/DX2                !
 ! R35   R(19,20)                1.3651         estimate D2E/DX2                !
 ! R36   R(19,21)                1.3958         estimate D2E/DX2                !
 ! R37   R(20,23)                1.3688         estimate D2E/DX2                !
 ! R38   R(20,25)                1.9902         estimate D2E/DX2                !
 ! R39   R(21,22)                1.3704         estimate D2E/DX2                !
 ! R40   R(21,33)                1.0896         estimate D2E/DX2                !
 ! R41   R(22,23)                1.3886         estimate D2E/DX2                !
 ! R42   R(22,34)                1.0903         estimate D2E/DX2                !
 ! R43   R(23,24)                1.4797         estimate D2E/DX2                !
 ! R44   R(24,35)                1.0966         estimate D2E/DX2                !
 ! A1    A(2,1,3)              106.5957         estimate D2E/DX2                !
 ! A2    A(2,1,26)             124.709          estimate D2E/DX2                !
 ! A3    A(3,1,26)             128.6791         estimate D2E/DX2                !
 ! A4    A(1,2,4)              106.3602         estimate D2E/DX2                !
 ! A5    A(1,2,27)             124.7859         estimate D2E/DX2                !
 ! A6    A(4,2,27)             128.8428         estimate D2E/DX2                !
 ! A7    A(1,3,5)              110.9741         estimate D2E/DX2                !
 ! A8    A(1,3,7)              123.1457         estimate D2E/DX2                !
 ! A9    A(5,3,7)              125.8693         estimate D2E/DX2                !
 ! A10   A(2,4,5)              111.0733         estimate D2E/DX2                !
 ! A11   A(2,4,6)              122.6393         estimate D2E/DX2                !
 ! A12   A(5,4,6)              126.2786         estimate D2E/DX2                !
 ! A13   A(3,5,4)              104.9928         estimate D2E/DX2                !
 ! A14   A(3,5,25)             126.9562         estimate D2E/DX2                !
 ! A15   A(4,5,25)             128.0103         estimate D2E/DX2                !
 ! A16   A(4,6,11)             125.5859         estimate D2E/DX2                !
 ! A17   A(4,6,29)             118.0845         estimate D2E/DX2                !
 ! A18   A(11,6,29)            116.3283         estimate D2E/DX2                !
 ! A19   A(3,7,8)              126.0265         estimate D2E/DX2                !
 ! A20   A(3,7,28)             117.5209         estimate D2E/DX2                !
 ! A21   A(8,7,28)             116.4473         estimate D2E/DX2                !
 ! A22   A(7,8,9)              125.0765         estimate D2E/DX2                !
 ! A23   A(7,8,10)             124.8004         estimate D2E/DX2                !
 ! A24   A(9,8,10)             110.1231         estimate D2E/DX2                !
 ! A25   A(8,9,15)             109.6101         estimate D2E/DX2                !
 ! A26   A(8,9,25)             125.071          estimate D2E/DX2                !
 ! A27   A(15,9,25)            125.2433         estimate D2E/DX2                !
 ! A28   A(8,10,14)            107.0003         estimate D2E/DX2                !
 ! A29   A(8,10,30)            126.5635         estimate D2E/DX2                !
 ! A30   A(14,10,30)           126.4347         estimate D2E/DX2                !
 ! A31   A(6,11,12)            125.1899         estimate D2E/DX2                !
 ! A32   A(6,11,13)            124.0399         estimate D2E/DX2                !
 ! A33   A(12,11,13)           110.77           estimate D2E/DX2                !
 ! A34   A(11,12,18)           108.507          estimate D2E/DX2                !
 ! A35   A(11,12,25)           125.5032         estimate D2E/DX2                !
 ! A36   A(18,12,25)           125.9683         estimate D2E/DX2                !
 ! A37   A(11,13,17)           106.8654         estimate D2E/DX2                !
 ! A38   A(11,13,36)           127.1334         estimate D2E/DX2                !
 ! A39   A(17,13,36)           126.0007         estimate D2E/DX2                !
 ! A40   A(10,14,15)           105.5605         estimate D2E/DX2                !
 ! A41   A(10,14,31)           126.8758         estimate D2E/DX2                !
 ! A42   A(15,14,31)           127.5608         estimate D2E/DX2                !
 ! A43   A(9,15,14)            107.7043         estimate D2E/DX2                !
 ! A44   A(9,15,16)            125.8935         estimate D2E/DX2                !
 ! A45   A(14,15,16)           126.3981         estimate D2E/DX2                !
 ! A46   A(15,16,19)           124.5614         estimate D2E/DX2                !
 ! A47   A(15,16,32)           118.322          estimate D2E/DX2                !
 ! A48   A(19,16,32)           117.1138         estimate D2E/DX2                !
 ! A49   A(13,17,18)           105.373          estimate D2E/DX2                !
 ! A50   A(13,17,37)           126.8839         estimate D2E/DX2                !
 ! A51   A(18,17,37)           127.7427         estimate D2E/DX2                !
 ! A52   A(12,18,17)           108.4843         estimate D2E/DX2                !
 ! A53   A(12,18,24)           125.9084         estimate D2E/DX2                !
 ! A54   A(17,18,24)           125.6065         estimate D2E/DX2                !
 ! A55   A(16,19,20)           126.4795         estimate D2E/DX2                !
 ! A56   A(16,19,21)           122.7522         estimate D2E/DX2                !
 ! A57   A(20,19,21)           110.7683         estimate D2E/DX2                !
 ! A58   A(19,20,23)           104.8782         estimate D2E/DX2                !
 ! A59   A(19,20,25)           127.0955         estimate D2E/DX2                !
 ! A60   A(23,20,25)           128.0171         estimate D2E/DX2                !
 ! A61   A(19,21,22)           106.6886         estimate D2E/DX2                !
 ! A62   A(19,21,33)           128.8889         estimate D2E/DX2                !
 ! A63   A(22,21,33)           124.4224         estimate D2E/DX2                !
 ! A64   A(21,22,23)           106.5659         estimate D2E/DX2                !
 ! A65   A(21,22,34)           125.3554         estimate D2E/DX2                !
 ! A66   A(23,22,34)           128.0781         estimate D2E/DX2                !
 ! A67   A(20,23,22)           111.0909         estimate D2E/DX2                !
 ! A68   A(20,23,24)           127.3675         estimate D2E/DX2                !
 ! A69   A(22,23,24)           121.5407         estimate D2E/DX2                !
 ! A70   A(18,24,23)           123.8012         estimate D2E/DX2                !
 ! A71   A(18,24,35)           118.327          estimate D2E/DX2                !
 ! A72   A(23,24,35)           117.8718         estimate D2E/DX2                !
 ! A73   A(5,25,9)              90.9612         estimate D2E/DX2                !
 ! A74   A(5,25,12)             89.4173         estimate D2E/DX2                !
 ! A75   A(9,25,20)             90.7            estimate D2E/DX2                !
 ! A76   A(12,25,20)            88.9209         estimate D2E/DX2                !
 ! A77   L(5,25,20,12,-1)      178.3382         estimate D2E/DX2                !
 ! A78   L(9,25,12,20,-1)      179.6209         estimate D2E/DX2                !
 ! A79   L(5,25,20,12,-2)      180.0258         estimate D2E/DX2                !
 ! A80   L(9,25,12,20,-2)      182.6601         estimate D2E/DX2                !
 ! D1    D(3,1,2,4)              0.2192         estimate D2E/DX2                !
 ! D2    D(3,1,2,27)          -178.6593         estimate D2E/DX2                !
 ! D3    D(26,1,2,4)           178.8603         estimate D2E/DX2                !
 ! D4    D(26,1,2,27)           -0.0182         estimate D2E/DX2                !
 ! D5    D(2,1,3,5)             -0.5471         estimate D2E/DX2                !
 ! D6    D(2,1,3,7)            178.3096         estimate D2E/DX2                !
 ! D7    D(26,1,3,5)          -179.1161         estimate D2E/DX2                !
 ! D8    D(26,1,3,7)            -0.2594         estimate D2E/DX2                !
 ! D9    D(1,2,4,5)              0.1727         estimate D2E/DX2                !
 ! D10   D(1,2,4,6)           -178.8133         estimate D2E/DX2                !
 ! D11   D(27,2,4,5)           178.99           estimate D2E/DX2                !
 ! D12   D(27,2,4,6)             0.004          estimate D2E/DX2                !
 ! D13   D(1,3,5,4)              0.6374         estimate D2E/DX2                !
 ! D14   D(1,3,5,25)           178.4559         estimate D2E/DX2                !
 ! D15   D(7,3,5,4)           -178.1813         estimate D2E/DX2                !
 ! D16   D(7,3,5,25)            -0.3628         estimate D2E/DX2                !
 ! D17   D(1,3,7,8)           -178.3885         estimate D2E/DX2                !
 ! D18   D(1,3,7,28)             0.7378         estimate D2E/DX2                !
 ! D19   D(5,3,7,8)              0.2941         estimate D2E/DX2                !
 ! D20   D(5,3,7,28)           179.4204         estimate D2E/DX2                !
 ! D21   D(2,4,5,3)             -0.4957         estimate D2E/DX2                !
 ! D22   D(2,4,5,25)          -178.2832         estimate D2E/DX2                !
 ! D23   D(6,4,5,3)            178.4451         estimate D2E/DX2                !
 ! D24   D(6,4,5,25)             0.6576         estimate D2E/DX2                !
 ! D25   D(2,4,6,11)           179.1171         estimate D2E/DX2                !
 ! D26   D(2,4,6,29)            -0.4611         estimate D2E/DX2                !
 ! D27   D(5,4,6,11)             0.2908         estimate D2E/DX2                !
 ! D28   D(5,4,6,29)          -179.2873         estimate D2E/DX2                !
 ! D29   D(3,5,25,9)            -0.515          estimate D2E/DX2                !
 ! D30   D(3,5,25,12)         -177.855          estimate D2E/DX2                !
 ! D31   D(4,5,25,9)           176.8101         estimate D2E/DX2                !
 ! D32   D(4,5,25,12)           -0.5298         estimate D2E/DX2                !
 ! D33   D(4,6,11,12)           -1.3879         estimate D2E/DX2                !
 ! D34   D(4,6,11,13)          178.4459         estimate D2E/DX2                !
 ! D35   D(29,6,11,12)         178.1968         estimate D2E/DX2                !
 ! D36   D(29,6,11,13)          -1.9694         estimate D2E/DX2                !
 ! D37   D(3,7,8,9)              1.3547         estimate D2E/DX2                !
 ! D38   D(3,7,8,10)          -178.5684         estimate D2E/DX2                !
 ! D39   D(28,7,8,9)          -177.7799         estimate D2E/DX2                !
 ! D40   D(28,7,8,10)            2.297          estimate D2E/DX2                !
 ! D41   D(7,8,9,15)          -179.529          estimate D2E/DX2                !
 ! D42   D(7,8,9,25)            -2.5595         estimate D2E/DX2                !
 ! D43   D(10,8,9,15)            0.4037         estimate D2E/DX2                !
 ! D44   D(10,8,9,25)          177.3733         estimate D2E/DX2                !
 ! D45   D(7,8,10,14)          179.4996         estimate D2E/DX2                !
 ! D46   D(7,8,10,30)           -0.0712         estimate D2E/DX2                !
 ! D47   D(9,8,10,14)           -0.4334         estimate D2E/DX2                !
 ! D48   D(9,8,10,30)          179.9958         estimate D2E/DX2                !
 ! D49   D(8,9,15,14)           -0.23           estimate D2E/DX2                !
 ! D50   D(8,9,15,16)          179.0727         estimate D2E/DX2                !
 ! D51   D(25,9,15,14)        -177.1932         estimate D2E/DX2                !
 ! D52   D(25,9,15,16)           2.1096         estimate D2E/DX2                !
 ! D53   D(8,9,25,5)             1.9356         estimate D2E/DX2                !
 ! D54   D(8,9,25,20)         -178.1158         estimate D2E/DX2                !
 ! D55   D(15,9,25,5)          178.4397         estimate D2E/DX2                !
 ! D56   D(15,9,25,20)          -1.6117         estimate D2E/DX2                !
 ! D57   D(8,10,14,15)           0.2687         estimate D2E/DX2                !
 ! D58   D(8,10,14,31)        -179.1469         estimate D2E/DX2                !
 ! D59   D(30,10,14,15)        179.8402         estimate D2E/DX2                !
 ! D60   D(30,10,14,31)          0.4246         estimate D2E/DX2                !
 ! D61   D(6,11,12,18)         179.7427         estimate D2E/DX2                !
 ! D62   D(6,11,12,25)           1.3491         estimate D2E/DX2                !
 ! D63   D(13,11,12,18)         -0.11           estimate D2E/DX2                !
 ! D64   D(13,11,12,25)       -178.5036         estimate D2E/DX2                !
 ! D65   D(6,11,13,17)        -179.6734         estimate D2E/DX2                !
 ! D66   D(6,11,13,36)           0.0653         estimate D2E/DX2                !
 ! D67   D(12,11,13,17)          0.1813         estimate D2E/DX2                !
 ! D68   D(12,11,13,36)        179.9201         estimate D2E/DX2                !
 ! D69   D(11,12,18,17)          0.003          estimate D2E/DX2                !
 ! D70   D(11,12,18,24)       -179.6981         estimate D2E/DX2                !
 ! D71   D(25,12,18,17)        178.3872         estimate D2E/DX2                !
 ! D72   D(25,12,18,24)         -1.314          estimate D2E/DX2                !
 ! D73   D(11,12,25,5)          -0.4464         estimate D2E/DX2                !
 ! D74   D(11,12,25,20)        179.5279         estimate D2E/DX2                !
 ! D75   D(18,12,25,5)        -178.5641         estimate D2E/DX2                !
 ! D76   D(18,12,25,20)          1.4102         estimate D2E/DX2                !
 ! D77   D(11,13,17,18)         -0.166          estimate D2E/DX2                !
 ! D78   D(11,13,17,37)        179.6288         estimate D2E/DX2                !
 ! D79   D(36,13,17,18)       -179.9086         estimate D2E/DX2                !
 ! D80   D(36,13,17,37)         -0.1138         estimate D2E/DX2                !
 ! D81   D(10,14,15,9)          -0.0463         estimate D2E/DX2                !
 ! D82   D(10,14,15,16)       -179.3445         estimate D2E/DX2                !
 ! D83   D(31,14,15,9)         179.364          estimate D2E/DX2                !
 ! D84   D(31,14,15,16)          0.0658         estimate D2E/DX2                !
 ! D85   D(9,15,16,19)          -1.0078         estimate D2E/DX2                !
 ! D86   D(9,15,16,32)         179.6249         estimate D2E/DX2                !
 ! D87   D(14,15,16,19)        178.167          estimate D2E/DX2                !
 ! D88   D(14,15,16,32)         -1.2003         estimate D2E/DX2                !
 ! D89   D(15,16,19,20)         -0.3212         estimate D2E/DX2                !
 ! D90   D(15,16,19,21)        179.6462         estimate D2E/DX2                !
 ! D91   D(32,16,19,20)        179.0531         estimate D2E/DX2                !
 ! D92   D(32,16,19,21)         -0.9795         estimate D2E/DX2                !
 ! D93   D(13,17,18,12)          0.1086         estimate D2E/DX2                !
 ! D94   D(13,17,18,24)        179.8108         estimate D2E/DX2                !
 ! D95   D(37,17,18,12)       -179.6839         estimate D2E/DX2                !
 ! D96   D(37,17,18,24)          0.0184         estimate D2E/DX2                !
 ! D97   D(12,18,24,23)          0.2026         estimate D2E/DX2                !
 ! D98   D(12,18,24,35)       -179.7885         estimate D2E/DX2                !
 ! D99   D(17,18,24,23)       -179.4488         estimate D2E/DX2                !
 ! D100  D(17,18,24,35)          0.5601         estimate D2E/DX2                !
 ! D101  D(16,19,20,23)        179.2753         estimate D2E/DX2                !
 ! D102  D(16,19,20,25)          0.3122         estimate D2E/DX2                !
 ! D103  D(21,19,20,23)         -0.6954         estimate D2E/DX2                !
 ! D104  D(21,19,20,25)       -179.6584         estimate D2E/DX2                !
 ! D105  D(16,19,21,22)       -179.7577         estimate D2E/DX2                !
 ! D106  D(16,19,21,33)          0.1641         estimate D2E/DX2                !
 ! D107  D(20,19,21,22)          0.2142         estimate D2E/DX2                !
 ! D108  D(20,19,21,33)       -179.864          estimate D2E/DX2                !
 ! D109  D(19,20,23,22)          0.9308         estimate D2E/DX2                !
 ! D110  D(19,20,23,24)       -178.7168         estimate D2E/DX2                !
 ! D111  D(25,20,23,22)        179.881          estimate D2E/DX2                !
 ! D112  D(25,20,23,24)          0.2333         estimate D2E/DX2                !
 ! D113  D(19,20,25,9)           0.4907         estimate D2E/DX2                !
 ! D114  D(19,20,25,12)        177.8306         estimate D2E/DX2                !
 ! D115  D(23,20,25,9)        -178.2372         estimate D2E/DX2                !
 ! D116  D(23,20,25,12)         -0.8973         estimate D2E/DX2                !
 ! D117  D(19,21,22,23)          0.3574         estimate D2E/DX2                !
 ! D118  D(19,21,22,34)       -179.8946         estimate D2E/DX2                !
 ! D119  D(33,21,22,23)       -179.5689         estimate D2E/DX2                !
 ! D120  D(33,21,22,34)          0.1791         estimate D2E/DX2                !
 ! D121  D(21,22,23,20)         -0.8205         estimate D2E/DX2                !
 ! D122  D(21,22,23,24)        178.8509         estimate D2E/DX2                !
 ! D123  D(34,22,23,20)        179.4406         estimate D2E/DX2                !
 ! D124  D(34,22,23,24)         -0.888          estimate D2E/DX2                !
 ! D125  D(20,23,24,18)          0.4214         estimate D2E/DX2                !
 ! D126  D(20,23,24,35)       -179.5875         estimate D2E/DX2                !
 ! D127  D(22,23,24,18)       -179.1929         estimate D2E/DX2                !
 ! D128  D(22,23,24,35)          0.7983         estimate D2E/DX2                !
 --------------------------------------------------------------------------------
 Trust Radius=3.00D-01 FncErr=1.00D-07 GrdErr=1.00D-06
 Number of steps in this run=    222 maximum allowed number of steps=    222.
 GradGradGradGradGradGradGradGradGradGradGradGradGradGradGradGradGradGrad

 Leave Link  103 at Wed Dec 12 15:13:21 2018, MaxMem= 16374562816 cpu:         0.6
 (Enter /sw/xc40cle6/gaussian09/d.01/precompiled/g09/l202.exe)
                          Input orientation:                          
 ---------------------------------------------------------------------
 Center     Atomic      Atomic             Coordinates (Angstroms)
 Number     Number       Type             X           Y           Z
 ---------------------------------------------------------------------
      1          6           0        0.755590    4.160890   -0.002982
      2          6           0       -0.617734    4.183088   -0.013500
      3          6           0        1.133473    2.813369    0.019655
      4          6           0       -1.033321    2.848455    0.008191
      5          7           0        0.039162    1.999719    0.035670
      6          6           0       -2.330983    2.491613   -0.018221
      7          6           0        2.418988    2.407963    0.001862
      8          6           0        2.892445    0.994635   -0.009932
      9          7           0        2.132431   -0.036018   -0.029462
     10          6           0        4.295213    0.584804    0.000772
     11          6           0       -2.843256    1.100789   -0.016353
     12          7           0       -2.115610    0.045622   -0.014576
     13          6           0       -4.264347    0.751211   -0.012783
     14          6           0        4.312489   -0.797060   -0.004190
     15          6           0        2.919453   -1.203765   -0.024387
     16          6           0        2.456092   -2.468057   -0.022948
     17          6           0       -4.337469   -0.623412   -0.004467
     18          6           0       -2.961959   -1.081488   -0.007199
     19          6           0        1.017770   -2.838307   -0.005029
     20          7           0       -0.041562   -1.977707    0.018611
     21          6           0        0.578947   -4.163367   -0.011399
     22          6           0       -0.790816   -4.124376    0.003939
     23          6           0       -1.148637   -2.782726    0.010876
     24          6           0       -2.566522   -2.359758    0.002304
     25         26           0        0.027663    0.011246    0.027259
     26          1           0        1.392213    5.047979   -0.032611
     27          1           0       -1.227122    5.091076   -0.052416
     28          1           0        3.189153    3.177697   -0.019328
     29          1           0       -3.081922    3.284550   -0.050435
     30          1           0        5.153529    1.235174    0.017136
     31          1           0        5.182368   -1.433020    0.013871
     32          1           0        3.180310   -3.285200   -0.025154
     33          1           0        1.168933   -5.079292   -0.026748
     34          1           0       -1.446770   -4.995253    0.005415
     35          1           0       -3.334880   -3.142104    0.003710
     36          1           0       -5.102211    1.430830   -0.012066
     37          1           0       -5.233931   -1.224394    0.005659
 ---------------------------------------------------------------------
                    Distance matrix (angstroms):
                    1          2          3          4          5
     1  C    0.000000
     2  C    1.373544   0.000000
     3  C    1.399686   2.223501   0.000000
     4  C    2.218741   1.398009   2.167108   0.000000
     5  N    2.277152   2.280577   1.363745   1.367965   0.000000
     6  C    3.509081   2.407557   3.479571   1.346091   2.421250
     7  C    2.416541   3.517525   1.348043   3.480303   2.414825
     8  C    3.819865   4.742109   2.530346   4.341499   3.025475
     9  N    4.417061   5.036320   3.019824   4.282942   2.920658
    10  C    5.031634   6.089737   3.868263   5.789425   4.485217
    11  C    4.723991   3.801779   4.329965   2.516109   3.019787
    12  N    5.017903   4.400257   4.268271   3.004620   2.909306
    13  C    6.068424   5.007551   5.778409   3.852065   4.481217
    14  C    6.101869   7.007786   4.810604   6.470519   5.107336
    15  C    5.784659   6.444377   4.396479   5.660916   4.308363
    16  C    6.843613   7.327088   5.444685   6.359424   5.079962
    17  C    6.987761   6.077742   6.460902   4.792850   5.102678
    18  C    6.426719   5.762915   5.651831   4.377709   4.301442
    19  C    7.004106   7.209364   5.652914   6.045363   4.936175
    20  N    6.190177   6.187762   4.933064   4.927021   3.978282
    21  C    8.326135   8.431807   6.998808   7.194820   6.186858
    22  C    8.428348   8.309285   7.199683   6.977048   6.180163
    23  C    7.200005   6.986059   6.043541   5.632362   4.927805
    24  C    7.318149   6.826922   6.360150   5.429201   5.078951
    25  Fe   4.213115   4.221666   3.012435   3.029159   1.988524
    26  H    1.092288   2.188216   2.250147   3.274567   3.335761
    27  H    2.190625   1.094217   3.281090   2.251795   3.341814
    28  H    2.624722   3.937415   2.088079   4.235380   3.363495
    29  H    3.936588   2.623158   4.242226   2.095324   3.376295
    30  H    5.282243   6.480634   4.318745   6.393737   5.171230
    31  H    7.133616   8.073574   5.867317   7.547572   6.183586
    32  H    7.830965   8.378580   6.433047   7.441607   6.148242
    33  H    9.249453   9.433135   7.892877   8.228020   7.168868
    34  H    9.417293   9.215726   8.223894   7.854598   7.151122
    35  H    8.370526   7.812913   7.445407   6.417475   6.150083
    36  H    6.462750   5.261697   6.387188   4.308821   5.172971
    37  H    8.054547   7.109888   7.539732   5.850917   6.180721
                    6          7          8          9         10
     6  C    0.000000
     7  C    4.750750   0.000000
     8  C    5.433711   1.490569   0.000000
     9  N    5.129436   2.460922   1.280722   0.000000
    10  C    6.895125   2.616129   1.461449   2.250324   0.000000
    11  C    1.482167   5.422200   5.736687   5.103916   7.157113
    12  N    2.455457   5.113072   5.097182   4.248851   6.433475
    13  C    2.601331   6.885638   7.160931   6.445058   8.561188
    14  C    7.412914   3.722574   2.286204   2.309216   1.381981
    15  C    6.420509   3.646331   2.198613   1.408212   2.256619
    16  C    6.893072   4.876224   3.490102   2.453490   3.564111
    17  C    3.705342   7.405335   7.408763   6.496558   8.716823
    18  C    3.628402   6.413341   6.211629   5.200607   7.446015
    19  C    6.294630   5.430176   4.266834   3.015939   4.739130
    20  N    5.021715   5.028786   4.176605   2.915255   5.037301
    21  C    7.263367   6.824097   5.653075   4.410062   6.029586
    22  C    6.792931   7.278345   6.306416   5.026048   6.931384
    23  C    5.405316   6.298514   5.531657   4.279187   6.401239
    24  C    4.857129   6.898295   6.407216   5.242226   7.466850
    25  Fe   3.423083   3.385754   3.029094   2.106063   4.306002
    26  H    4.516348   2.832868   4.322130   5.137602   5.324327
    27  H    2.824338   4.527268   5.809773   6.129781   7.127798
    28  H    5.562609   1.089079   2.203153   3.383006   2.819019
    29  H    1.092564   5.570561   6.398313   6.181916   7.855786
    30  H    7.589322   2.975463   2.274004   3.277977   1.077012
    31  H    8.476687   4.731761   3.337338   3.354938   2.204275
    32  H    7.984107   5.743905   4.289532   3.413979   4.027482
    33  H    8.340749   7.590945   6.313744   5.134486   6.469650
    34  H    7.538936   8.351749   7.396471   6.116037   8.006711
    35  H    5.722504   7.994388   7.476120   6.288113   8.491653
    36  H    2.967323   7.584419   8.006547   7.381869   9.435439
    37  H    4.715547   8.471198   8.423914   7.461686   9.699371
                   11         12         13         14         15
    11  C    0.000000
    12  N    1.281737   0.000000
    13  C    1.463461   2.261621   0.000000
    14  C    7.403152   6.483107   8.715465   0.000000
    15  C    6.206436   5.187767   7.445069   1.451333   0.000000
    16  C    6.389037   5.217194   7.451717   2.497758   1.346529
    17  C    2.281597   2.320424   1.376592   8.651701   7.280118
    18  C    2.185522   1.409517   2.248340   7.280007   5.882708
    19  C    5.515807   4.258545   6.386349   3.875805   2.507688
    20  N    4.162673   2.897695   5.027911   4.511342   3.060792
    21  C    6.278761   4.997623   6.900042   5.027068   3.773245
    22  C    5.613846   4.375421   5.986405   6.092193   4.721956
    23  C    4.237235   2.989187   4.711361   5.810937   4.363911
    24  C    3.471644   2.447337   3.544145   7.054280   5.606510
    25  Fe   3.071023   2.143957   4.355514   4.360514   3.137096
    26  H    5.789626   6.109724   7.103470   6.534011   6.435591
    27  H    4.305297   5.123226   5.297238   8.084538   7.537897
    28  H    6.379931   6.160392   7.838529   4.130473   4.389758
    29  H    2.197029   3.380192   2.795953   8.446241   7.494141
    30  H    7.997984   7.365896   9.430350   2.199495   3.307755
    31  H    8.416160   7.446320   9.695979   1.077711   2.274820
    32  H    7.451196   6.256297   8.468511   2.733699   2.097717
    33  H    7.368254   6.087127   7.969661   5.312247   4.252533
    34  H    6.253989   5.085093   6.400072   7.126990   5.782748
    35  H    4.271327   3.412997   4.002759   7.998847   6.547872
    36  H    2.282942   3.292202   1.078841   9.674716   8.443242
    37  H    3.335009   3.367087   2.200784   9.555985   8.153465
                   16         17         18         19         20
    16  C    0.000000
    17  C    7.039569   0.000000
    18  C    5.592683   1.449782   0.000000
    19  C    1.485320   5.795200   4.350248   0.000000
    20  N    2.545672   4.504383   3.054929   1.365055   0.000000
    21  C    2.529404   6.058257   4.694253   1.395847   2.272233
    22  C    3.645069   4.983530   3.738068   2.219242   2.273716
    23  C    3.618595   3.851171   2.486498   2.167178   1.368843
    24  C    5.023845   2.480161   1.338071   3.616105   2.553753
    25  Fe   3.470840   4.411142   3.183252   3.016837   1.990176
    26  H    7.590964   8.061931   7.518632   7.895219   7.170676
    27  H    8.408771   6.506299   6.411884   8.241171   7.167865
    28  H    5.693148   8.432004   7.481777   6.395890   6.084172
    29  H    7.985164   4.104958   4.367900   7.368780   6.077821
    30  H    4.581669   9.671290   8.439707   5.805019   6.108320
    31  H    2.916374   9.554219   8.151937   4.395346   5.252252
    32  H    1.091888   7.975120   6.525652   2.208325   3.477343
    33  H    2.911244   7.083490   5.748660   2.246182   3.329742
    34  H    4.649716   5.241110   4.196846   3.275131   3.328719
    35  H    5.830129   2.710915   2.094117   4.363248   3.493134
    36  H    8.504668   2.191985   3.300370   7.461886   6.101576
    37  H    7.789992   1.079317   2.276498   6.456671   5.246746
                   21         22         23         24         25
    21  C    0.000000
    22  C    1.370404   0.000000
    23  C    2.211609   1.388564   0.000000
    24  C    3.625902   2.503400   1.479653   0.000000
    25  Fe   4.211033   4.215901   3.031539   3.514552   0.000000
    26  H    9.247202   9.428629   8.232724   8.399248   5.218645
    27  H    9.429119   9.225947   7.874448   7.570463   5.233116
    28  H    7.791307   8.316307   7.371837   7.986969   4.474774
    29  H    8.299094   7.755276   6.368139   5.668036   4.515537
    30  H    7.076147   8.003761   7.474012   8.516040   5.269972
    31  H    5.352282   6.551521   6.473279   7.804119   5.353230
    32  H    2.745625   4.058929   4.358160   5.820934   4.561632
    33  H    1.089604   2.180234   3.262938   4.620642   5.217182
    34  H    2.189942   1.090277   2.232530   2.863510   5.219144
    35  H    4.044904   2.727108   2.215595   1.096559   4.609866
    36  H    7.973117   7.031977   5.778004   4.560535   5.322816
    37  H    6.513632   5.305768   4.372420   2.898988   5.404780
                   26         27         28         29         30
    26  H    0.000000
    27  H    2.619764   0.000000
    28  H    2.593670   4.813065   0.000000
    29  H    4.809146   2.589174   6.272062   0.000000
    30  H    5.356067   7.455570   2.762879   8.486882   0.000000
    31  H    7.508048   9.146026   5.023218   9.516202   2.668352
    32  H    8.522864   9.465104   6.462906   9.076222   4.932460
    33  H   10.129734  10.448834   8.500542   9.382120   7.466687
    34  H   10.436847  10.088886   9.396250   8.439904   9.076470
    35  H    9.456436   8.498885   9.083139   6.431858   9.550593
    36  H    7.433824   5.330604   8.473389   2.742137  10.257648
    37  H    9.124139   7.479509   9.504071   4.996485  10.674686
                   31         32         33         34         35
    31  H    0.000000
    32  H    2.727697   0.000000
    33  H    5.422602   2.695256   0.000000
    34  H    7.525626   4.933060   2.617250   0.000000
    35  H    8.687035   6.516825   4.902852   2.645586   0.000000
    36  H   10.675902   9.531068   9.039311   7.393044   4.902595
    37  H   10.418391   8.662986   7.473818   5.344340   2.698891
                   36         37
    36  H    0.000000
    37  H    2.658548   0.000000
 Stoichiometry    C20H12FeN4(1+,4)
 Framework group  C1[X(C20H12FeN4)]
 Deg. of freedom   105
 Full point group                 C1      NOp   1
 Largest Abelian subgroup         C1      NOp   1
 Largest concise Abelian subgroup C1      NOp   1
                         Standard orientation:                         
 ---------------------------------------------------------------------
 Center     Atomic      Atomic             Coordinates (Angstroms)
 Number     Number       Type             X           Y           Z
 ---------------------------------------------------------------------
      1          6           0        0.755714    4.160955   -0.002835
      2          6           0       -0.617610    4.183145   -0.013353
      3          6           0        1.133605    2.813436    0.019802
      4          6           0       -1.033189    2.848509    0.008338
      5          7           0        0.039299    1.999780    0.035817
      6          6           0       -2.330849    2.491660   -0.018074
      7          6           0        2.419123    2.408038    0.002009
      8          6           0        2.892588    0.994712   -0.009785
      9          7           0        2.132580   -0.035945   -0.029315
     10          6           0        4.295358    0.584890    0.000919
     11          6           0       -2.843114    1.100833   -0.016206
     12          7           0       -2.115462    0.045670   -0.014429
     13          6           0       -4.264203    0.751247   -0.012636
     14          6           0        4.312642   -0.796974   -0.004043
     15          6           0        2.919609   -1.203687   -0.024240
     16          6           0        2.456255   -2.467982   -0.022801
     17          6           0       -4.337317   -0.623377   -0.004320
     18          6           0       -2.961804   -1.081445   -0.007052
     19          6           0        1.017935   -2.838241   -0.004882
     20          7           0       -0.041402   -1.977647    0.018758
     21          6           0        0.579120   -4.163303   -0.011252
     22          6           0       -0.790643   -4.124320    0.004086
     23          6           0       -1.148472   -2.782672    0.011023
     24          6           0       -2.566360   -2.359713    0.002451
     25         26           0        0.027812    0.011307    0.027406
     26          1           0        1.392332    5.048048   -0.032464
     27          1           0       -1.227003    5.091129   -0.052269
     28          1           0        3.189283    3.177776   -0.019181
     29          1           0       -3.081793    3.284592   -0.050288
     30          1           0        5.153670    1.235265    0.017283
     31          1           0        5.182525   -1.432929    0.014018
     32          1           0        3.180478   -3.285121   -0.025007
     33          1           0        1.169111   -5.079225   -0.026601
     34          1           0       -1.446592   -4.995201    0.005562
     35          1           0       -3.334713   -3.142063    0.003857
     36          1           0       -5.102071    1.430861   -0.011919
     37          1           0       -5.233775   -1.224364    0.005806
 ---------------------------------------------------------------------
 Rotational constants (GHZ):      0.2746994      0.2602063      0.1336370
 Leave Link  202 at Wed Dec 12 15:13:21 2018, MaxMem= 16374562816 cpu:         0.2
 (Enter /sw/xc40cle6/gaussian09/d.01/precompiled/g09/l301.exe)
 Standard basis: TZVP (5D, 7F)
 Ernie: Thresh=  0.10000D-02 Tol=  0.10000D-05 Strict=F.
 There are   588 symmetry adapted cartesian basis functions of A   symmetry.
 There are   561 symmetry adapted basis functions of A   symmetry.
   561 basis functions,  1022 primitive gaussians,   588 cartesian basis functions
    94 alpha electrons       91 beta electrons
       nuclear repulsion energy      2490.5300420745 Hartrees.
 IExCor= 1009 DFT=T Ex+Corr=PBE1PBE ExCW=0 ScaHFX=  0.250000
 ScaDFX=  0.750000  0.750000  1.000000  1.000000 ScalE2=  1.000000  1.000000
 IRadAn=      0 IRanWt=     -1 IRanGd=            0 ICorTp=0 IEmpDi=  4
 NAtoms=   37 NActive=   37 NUniq=   37 SFac= 1.00D+00 NAtFMM=   60 NAOKFM=F Big=F
 Integral buffers will be    131072 words long.
 Raffenetti 2 integral format.
 Two-electron integral symmetry is turned on.
 ------------------------------------------------------------------------------
 Polarizable Continuum Model (PCM)
 =================================
 Model                : PCM (using non-symmetric T matrix).
 Atomic radii         : SMD-Coulomb.
 Polarization charges : Total charges.
 Charge compensation  : None.
 Solution method      : On-the-fly selection.
 Cavity type          : VdW (van der Waals Surface) (Alpha=1.000).
 Cavity algorithm     : GePol (No added spheres)
                        Default sphere list used, NSphG=   37.
                        Lebedev-Laikov grids with approx.  5.0 points / Ang**2.
                        Smoothing algorithm: Karplus/York (Gamma=1.0000).
                        Polarization charges: spherical gaussians, with
                                              point-specific exponents (IZeta= 3).
                        Self-potential: point-specific (ISelfS= 7).
                        Self-field    : sphere-specific E.n sum rule (ISelfD= 2).
 1st derivatives      : Analytical E(r).r(x)/FMM algorithm (CHGder, D1EAlg=3).
                        Cavity 1st derivative terms included.
 Solvent              : Water, Eps=  78.355300 Eps(inf)=   1.777849
 ------------------------------------------------------------------------------
 GePol: Number of generator spheres                  =      37
 GePol: Total number of spheres                      =      37
 GePol: Number of exposed spheres                    =      37 (100.00%)
 GePol: Number of points                             =    2960
 GePol: Average weight of points                     =       0.11
 GePol: Minimum weight of points                     =   0.24D-10
 GePol: Maximum weight of points                     =    0.20178
 GePol: Number of points with low weight             =     149
 GePol: Fraction of low-weight points (<1% of avg)   =       5.03%
 GePol: Cavity surface area                          =    313.605 Ang**2
 GePol: Cavity volume                                =    316.228 Ang**3
 ------------------------------------------------------------------------------
 Atomic radii for non-electrostatic terms: SMD-CDS.
 ------------------------------------------------------------------------------
 PCM non-electrostatic energy =         0.0064020195 Hartrees.
 Nuclear repulsion after PCM non-electrostatic terms =     2490.5364440940 Hartrees.
 Leave Link  301 at Wed Dec 12 15:13:22 2018, MaxMem= 16374562816 cpu:         2.7
 (Enter /sw/xc40cle6/gaussian09/d.01/precompiled/g09/l302.exe)
 NPDir=0 NMtPBC=     1 NCelOv=     1 NCel=       1 NClECP=     1 NCelD=      1
         NCelK=      1 NCelE2=     1 NClLst=     1 CellRange=     0.0.
 One-electron integrals computed using PRISM.
 NBasis=   561 RedAO= T EigKep=  1.22D-05  NBF=   561
 NBsUse=   561 1.00D-06 EigRej= -1.00D+00 NBFU=   561
 Precomputing XC quadrature grid using
 IXCGrd= 4 IRadAn=           0 IRanWt=          -1 IRanGd=           0 AccXCQ= 0.00D+00.
 Generated NRdTot=       0 NPtTot=           0 NUsed=           0 NTot=          32
 NSgBfM=   569   569   569   569   569 MxSgAt=    37 MxSgA2=    37.
 Leave Link  302 at Wed Dec 12 15:13:22 2018, MaxMem= 16374562816 cpu:        27.8
 (Enter /sw/xc40cle6/gaussian09/d.01/precompiled/g09/l303.exe)
 DipDrv:  MaxL=1.
 Leave Link  303 at Wed Dec 12 15:13:23 2018, MaxMem= 16374562816 cpu:         4.4
 (Enter /sw/xc40cle6/gaussian09/d.01/precompiled/g09/l401.exe)
 ExpMin= 4.20D-02 ExpMax= 3.01D+05 ExpMxC= 2.91D+03 IAcc=2 IRadAn=         4 AccDes= 0.00D+00
 Harris functional with IExCor= 1009 and IRadAn=       4 diagonalized for initial guess.
 HarFok:  IExCor= 1009 AccDes= 0.00D+00 IRadAn=         4 IDoV= 1 UseB2=F ITyADJ=14
 ICtDFT=  3500011 ScaDFX=  1.000000  1.000000  1.000000  1.000000
 FoFCou: FMM=F IPFlag=           0 FMFlag=      100000 FMFlg1=           0
         NFxFlg=           0 DoJE=T BraDBF=F KetDBF=T FulRan=T
         wScrn=  0.000000 ICntrl=     500 IOpCl=  0 I1Cent=   200000004 NGrid=           0
         NMat0=    1 NMatS0=      1 NMatT0=    0 NMatD0=    1 NMtDS0=    0 NMtDT0=    0
 Petite list used in FoFCou.
 Harris En= -2250.94768232327    
 JPrj=0 DoOrth=F DoCkMO=F.
 Initial guess <Sx>= 0.0000 <Sy>= 0.0000 <Sz>= 1.5000 <S**2>= 3.7500 S= 1.5000
 Leave Link  401 at Wed Dec 12 15:13:24 2018, MaxMem= 16374562816 cpu:        44.7
 (Enter /sw/xc40cle6/gaussian09/d.01/precompiled/g09/l502.exe)
 UHF open shell SCF:
 Using DIIS extrapolation, IDIIS=  1040.
 Integral symmetry usage will be decided dynamically.
 IVT=     5072014 IEndB=     5072014 NGot= 16374562816 MDV= 16373841135
 LenX= 16373841135 LenY= 16373494803
 Requested convergence on RMS density matrix=1.00D-08 within2000 cycles.
 Requested convergence on MAX density matrix=1.00D-06.
 Requested convergence on             energy=1.00D-06.
 No special actions if energy rises.
 Fock matrices will be formed incrementally for  20 cycles.

 Cycle   1  Pass 1  IDiag  1:
 FoFJK:  IHMeth= 1 ICntrl=       0 DoSepK=F KAlg= 0 I1Cent=   0 FoldK=F
 IRaf= 770000000 NMat=   1 IRICut=       1 DoRegI=T DoRafI=F ISym2E= 0.
 FoFCou: FMM=F IPFlag=           0 FMFlag=      100000 FMFlg1=           0
         NFxFlg=           0 DoJE=F BraDBF=F KetDBF=F FulRan=T
         wScrn=  0.000000 ICntrl=       0 IOpCl=  1 I1Cent=           0 NGrid=           0
         NMat0=    1 NMatS0=      1 NMatT0=    0 NMatD0=    1 NMtDS0=    0 NMtDT0=    0
 Symmetry not used in FoFCou.
 Inv3:  Mode=1 IEnd=    26284800.
 Iteration    1 A*A^-1 deviation from unit magnitude is 6.88D-15 for    172.
 Iteration    1 A*A^-1 deviation from orthogonality  is 3.00D-15 for   1735    374.
 Iteration    1 A^-1*A deviation from unit magnitude is 7.11D-15 for    263.
 Iteration    1 A^-1*A deviation from orthogonality  is 1.71D-09 for   1965   1961.
 Iteration    2 A*A^-1 deviation from unit magnitude is 1.21D-14 for    279.
 Iteration    2 A*A^-1 deviation from orthogonality  is 8.55D-15 for   2381    732.
 Iteration    2 A^-1*A deviation from unit magnitude is 1.33D-15 for    625.
 Iteration    2 A^-1*A deviation from orthogonality  is 4.93D-16 for   2952    649.
 E= -2249.80130607217    
 DIIS: error= 1.63D-01 at cycle   1 NSaved=   1.
 NSaved= 1 IEnMin= 1 EnMin= -2249.80130607217     IErMin= 1 ErrMin= 1.63D-01
 ErrMax= 1.63D-01  0.00D+00 EMaxC= 1.00D-01 BMatC= 6.69D+00 BMatP= 6.69D+00
 IDIUse=3 WtCom= 0.00D+00 WtEn= 1.00D+00
 Coeff-Com:  0.100D+01
 Coeff-En:   0.100D+01
 Coeff:      0.100D+01
 Gap=     0.760 Goal=   None    Shift=    0.000
 Gap=     0.414 Goal=   None    Shift=    0.000
 GapD=    0.414 DampG=2.000 DampE=0.125 DampFc=0.2500 IDamp=-1.
 Damping current iteration by 2.50D-01
 RMSDP=7.03D-03 MaxDP=8.81D-01              OVMax= 9.72D-01

 Cycle   2  Pass 1  IDiag  1:
 RMSU=  1.76D-03    CP:  1.00D+00
 E= -2250.15354778527     Delta-E=       -0.352241713097 Rises=F Damp=T
 DIIS: error= 2.59D-02 at cycle   2 NSaved=   2.
 NSaved= 2 IEnMin= 2 EnMin= -2250.15354778527     IErMin= 2 ErrMin= 2.59D-02
 ErrMax= 2.59D-02  0.00D+00 EMaxC= 1.00D-01 BMatC= 1.07D+00 BMatP= 6.69D+00
 IDIUse=3 WtCom= 7.41D-01 WtEn= 2.59D-01
 Coeff-Com:  0.160D+00 0.840D+00
 Coeff-En:   0.332D+00 0.668D+00
 Coeff:      0.204D+00 0.796D+00
 Gap=     0.015 Goal=   None    Shift=    0.000
 Gap=     0.009 Goal=   None    Shift=    0.000
 RMSDP=2.51D-03 MaxDP=2.04D-01 DE=-3.52D-01 OVMax= 9.97D-01

 Cycle   3  Pass 1  IDiag  1:
 RMSU=  2.15D-03    CP:  9.50D-01  3.53D-01
 E= -2250.80146725779     Delta-E=       -0.647919472520 Rises=F Damp=F
 DIIS: error= 3.00D-02 at cycle   3 NSaved=   3.
 NSaved= 3 IEnMin= 3 EnMin= -2250.80146725779     IErMin= 2 ErrMin= 2.59D-02
 ErrMax= 3.00D-02  0.00D+00 EMaxC= 1.00D-01 BMatC= 6.81D-01 BMatP= 1.07D+00
 IDIUse=3 WtCom= 7.00D-01 WtEn= 3.00D-01
 Coeff-Com: -0.440D-01 0.440D+00 0.604D+00
 Coeff-En:   0.000D+00 0.000D+00 0.100D+01
 Coeff:     -0.308D-01 0.308D+00 0.723D+00
 Gap=     0.113 Goal=   None    Shift=    0.000
 Gap=     0.054 Goal=   None    Shift=    0.000
 RMSDP=1.12D-03 MaxDP=4.89D-02 DE=-6.48D-01 OVMax= 8.91D-02

 Cycle   4  Pass 1  IDiag  1:
 RMSU=  9.89D-04    CP:  9.65D-01  5.22D-01  8.10D-01
 E= -2250.89427642430     Delta-E=       -0.092809166515 Rises=F Damp=F
 DIIS: error= 1.12D-02 at cycle   4 NSaved=   4.
 NSaved= 4 IEnMin= 4 EnMin= -2250.89427642430     IErMin= 4 ErrMin= 1.12D-02
 ErrMax= 1.12D-02  0.00D+00 EMaxC= 1.00D-01 BMatC= 1.50D-01 BMatP= 6.81D-01
 IDIUse=3 WtCom= 8.88D-01 WtEn= 1.12D-01
 Coeff-Com: -0.124D-01 0.700D-01 0.348D+00 0.594D+00
 Coeff-En:   0.000D+00 0.000D+00 0.143D+00 0.857D+00
 Coeff:     -0.110D-01 0.621D-01 0.325D+00 0.623D+00
 Gap=     0.089 Goal=   None    Shift=    0.000
 Gap=     0.098 Goal=   None    Shift=    0.000
 RMSDP=3.79D-04 MaxDP=2.28D-02 DE=-9.28D-02 OVMax= 6.79D-02

 Cycle   5  Pass 1  IDiag  1:
 RMSU=  2.69D-04    CP:  9.61D-01  5.07D-01  8.52D-01  7.50D-01
 E= -2250.91526240880     Delta-E=       -0.020985984496 Rises=F Damp=F
 DIIS: error= 6.62D-03 at cycle   5 NSaved=   5.
 NSaved= 5 IEnMin= 5 EnMin= -2250.91526240880     IErMin= 5 ErrMin= 6.62D-03
 ErrMax= 6.62D-03  0.00D+00 EMaxC= 1.00D-01 BMatC= 3.66D-02 BMatP= 1.50D-01
 IDIUse=3 WtCom= 9.34D-01 WtEn= 6.62D-02
 Coeff-Com: -0.222D-01 0.304D-01 0.145D+00 0.371D+00 0.476D+00
 Coeff-En:   0.000D+00 0.000D+00 0.000D+00 0.154D+00 0.846D+00
 Coeff:     -0.207D-01 0.284D-01 0.136D+00 0.356D+00 0.500D+00
 Gap=     0.080 Goal=   None    Shift=    0.000
 Gap=     0.086 Goal=   None    Shift=    0.000
 RMSDP=1.58D-04 MaxDP=1.69D-02 DE=-2.10D-02 OVMax= 2.93D-02

 Cycle   6  Pass 1  IDiag  1:
 RMSU=  1.26D-04    CP:  9.61D-01  5.36D-01  8.51D-01  7.93D-01  7.44D-01
 E= -2250.92159550065     Delta-E=       -0.006333091846 Rises=F Damp=F
 DIIS: error= 1.34D-03 at cycle   6 NSaved=   6.
 NSaved= 6 IEnMin= 6 EnMin= -2250.92159550065     IErMin= 6 ErrMin= 1.34D-03
 ErrMax= 1.34D-03  0.00D+00 EMaxC= 1.00D-01 BMatC= 2.44D-03 BMatP= 3.66D-02
 IDIUse=3 WtCom= 9.87D-01 WtEn= 1.34D-02
 Coeff-Com: -0.112D-01 0.712D-02-0.411D-03 0.604D-01 0.268D+00 0.677D+00
 Coeff-En:   0.000D+00 0.000D+00 0.000D+00 0.000D+00 0.000D+00 0.100D+01
 Coeff:     -0.110D-01 0.702D-02-0.406D-03 0.596D-01 0.264D+00 0.681D+00
 Gap=     0.075 Goal=   None    Shift=    0.000
 Gap=     0.089 Goal=   None    Shift=    0.000
 RMSDP=8.29D-05 MaxDP=7.13D-03 DE=-6.33D-03 OVMax= 1.36D-02

 Cycle   7  Pass 1  IDiag  1:
 RMSU=  5.46D-05    CP:  9.61D-01  5.60D-01  8.48D-01  8.08D-01  9.02D-01
                    CP:  1.01D+00
 E= -2250.92253697226     Delta-E=       -0.000941471611 Rises=F Damp=F
 DIIS: error= 1.09D-03 at cycle   7 NSaved=   7.
 NSaved= 7 IEnMin= 7 EnMin= -2250.92253697226     IErMin= 7 ErrMin= 1.09D-03
 ErrMax= 1.09D-03  0.00D+00 EMaxC= 1.00D-01 BMatC= 5.41D-04 BMatP= 2.44D-03
 IDIUse=3 WtCom= 9.89D-01 WtEn= 1.09D-02
 Coeff-Com: -0.123D-04-0.952D-03-0.334D-01-0.674D-01-0.155D-01 0.333D+00
 Coeff-Com:  0.784D+00
 Coeff-En:   0.000D+00 0.000D+00 0.000D+00 0.000D+00 0.000D+00 0.000D+00
 Coeff-En:   0.100D+01
 Coeff:     -0.122D-04-0.942D-03-0.330D-01-0.667D-01-0.154D-01 0.329D+00
 Coeff:      0.787D+00
 Gap=     0.072 Goal=   None    Shift=    0.000
 Gap=     0.092 Goal=   None    Shift=    0.000
 RMSDP=4.46D-05 MaxDP=8.30D-03 DE=-9.41D-04 OVMax= 1.28D-02

 Cycle   8  Pass 1  IDiag  1:
 RMSU=  3.49D-05    CP:  9.61D-01  5.65D-01  8.46D-01  8.20D-01  9.62D-01
                    CP:  1.14D+00  1.09D+00
 E= -2250.92289510655     Delta-E=       -0.000358134294 Rises=F Damp=F
 DIIS: error= 4.63D-04 at cycle   8 NSaved=   8.
 NSaved= 8 IEnMin= 8 EnMin= -2250.92289510655     IErMin= 8 ErrMin= 4.63D-04
 ErrMax= 4.63D-04  0.00D+00 EMaxC= 1.00D-01 BMatC= 1.41D-04 BMatP= 5.41D-04
 IDIUse=3 WtCom= 9.95D-01 WtEn= 4.63D-03
 Coeff-Com:  0.339D-02-0.343D-02-0.106D-01-0.316D-01-0.468D-01 0.130D-02
 Coeff-Com:  0.306D+00 0.782D+00
 Coeff-En:   0.000D+00 0.000D+00 0.000D+00 0.000D+00 0.000D+00 0.000D+00
 Coeff-En:   0.000D+00 0.100D+01
 Coeff:      0.338D-02-0.341D-02-0.106D-01-0.314D-01-0.466D-01 0.129D-02
 Coeff:      0.305D+00 0.783D+00
 Gap=     0.071 Goal=   None    Shift=    0.000
 Gap=     0.093 Goal=   None    Shift=    0.000
 RMSDP=2.36D-05 MaxDP=4.45D-03 DE=-3.58D-04 OVMax= 6.86D-03

 Cycle   9  Pass 1  IDiag  1:
 RMSU=  1.33D-05    CP:  9.61D-01  5.66D-01  8.44D-01  8.21D-01  9.83D-01
                    CP:  1.22D+00  1.32D+00  1.24D+00
 E= -2250.92299744268     Delta-E=       -0.000102336127 Rises=F Damp=F
 DIIS: error= 3.98D-04 at cycle   9 NSaved=   9.
 NSaved= 9 IEnMin= 9 EnMin= -2250.92299744268     IErMin= 9 ErrMin= 3.98D-04
 ErrMax= 3.98D-04  0.00D+00 EMaxC= 1.00D-01 BMatC= 7.52D-05 BMatP= 1.41D-04
 IDIUse=3 WtCom= 9.96D-01 WtEn= 3.98D-03
 Coeff-Com:  0.210D-02-0.237D-02 0.253D-02-0.965D-03-0.916D-03-0.614D-01
 Coeff-Com: -0.365D-01 0.254D+00 0.844D+00
 Coeff-En:   0.000D+00 0.000D+00 0.000D+00 0.000D+00 0.000D+00 0.000D+00
 Coeff-En:   0.000D+00 0.000D+00 0.100D+01
 Coeff:      0.209D-02-0.236D-02 0.252D-02-0.961D-03-0.913D-03-0.611D-01
 Coeff:     -0.364D-01 0.253D+00 0.844D+00
 Gap=     0.070 Goal=   None    Shift=    0.000
 Gap=     0.094 Goal=   None    Shift=    0.000
 RMSDP=1.56D-05 MaxDP=2.52D-03 DE=-1.02D-04 OVMax= 5.00D-03

 Cycle  10  Pass 1  IDiag  1:
 RMSU=  8.25D-06    CP:  9.61D-01  5.64D-01  8.44D-01  8.18D-01  9.94D-01
                    CP:  1.26D+00  1.41D+00  1.52D+00  1.21D+00
 E= -2250.92303820231     Delta-E=       -0.000040759631 Rises=F Damp=F
 DIIS: error= 1.83D-04 at cycle  10 NSaved=  10.
 NSaved=10 IEnMin=10 EnMin= -2250.92303820231     IErMin=10 ErrMin= 1.83D-04
 ErrMax= 1.83D-04  0.00D+00 EMaxC= 1.00D-01 BMatC= 2.78D-05 BMatP= 7.52D-05
 IDIUse=3 WtCom= 9.98D-01 WtEn= 1.83D-03
 Coeff-Com: -0.306D-03 0.396D-04 0.632D-02 0.114D-01 0.327D-01-0.364D-01
 Coeff-Com: -0.186D+00-0.324D+00 0.596D+00 0.900D+00
 Coeff-En:   0.000D+00 0.000D+00 0.000D+00 0.000D+00 0.000D+00 0.000D+00
 Coeff-En:   0.000D+00 0.000D+00 0.000D+00 0.100D+01
 Coeff:     -0.306D-03 0.395D-04 0.631D-02 0.114D-01 0.327D-01-0.363D-01
 Coeff:     -0.185D+00-0.324D+00 0.595D+00 0.900D+00
 Gap=     0.069 Goal=   None    Shift=    0.000
 Gap=     0.095 Goal=   None    Shift=    0.000
 RMSDP=1.66D-05 MaxDP=2.59D-03 DE=-4.08D-05 OVMax= 5.29D-03

 Cycle  11  Pass 1  IDiag  1:
 RMSU=  4.72D-06    CP:  9.61D-01  5.62D-01  8.45D-01  8.17D-01  1.01D+00
                    CP:  1.28D+00  1.52D+00  1.80D+00  1.84D+00  1.23D+00
 E= -2250.92305965878     Delta-E=       -0.000021456475 Rises=F Damp=F
 DIIS: error= 4.54D-05 at cycle  11 NSaved=  11.
 NSaved=11 IEnMin=11 EnMin= -2250.92305965878     IErMin=11 ErrMin= 4.54D-05
 ErrMax= 4.54D-05  0.00D+00 EMaxC= 1.00D-01 BMatC= 2.35D-06 BMatP= 2.78D-05
 IDIUse=1 WtCom= 1.00D+00 WtEn= 0.00D+00
 Coeff-Com: -0.330D-03 0.286D-03 0.254D-02 0.470D-02 0.123D-01-0.159D-01
 Coeff-Com: -0.816D-01-0.146D+00 0.195D+00 0.391D+00 0.639D+00
 Coeff:     -0.330D-03 0.286D-03 0.254D-02 0.470D-02 0.123D-01-0.159D-01
 Coeff:     -0.816D-01-0.146D+00 0.195D+00 0.391D+00 0.639D+00
 Gap=     0.069 Goal=   None    Shift=    0.000
 Gap=     0.095 Goal=   None    Shift=    0.000
 RMSDP=3.98D-06 MaxDP=4.77D-04 DE=-2.15D-05 OVMax= 1.77D-03

 Cycle  12  Pass 1  IDiag  1:
 RMSU=  2.46D-06    CP:  9.61D-01  5.62D-01  8.45D-01  8.17D-01  1.01D+00
                    CP:  1.29D+00  1.54D+00  1.85D+00  1.93D+00  1.37D+00
                    CP:  9.75D-01
 E= -2250.92306117790     Delta-E=       -0.000001519112 Rises=F Damp=F
 DIIS: error= 2.56D-05 at cycle  12 NSaved=  12.
 NSaved=12 IEnMin=12 EnMin= -2250.92306117790     IErMin=12 ErrMin= 2.56D-05
 ErrMax= 2.56D-05  0.00D+00 EMaxC= 1.00D-01 BMatC= 7.90D-07 BMatP= 2.35D-06
 IDIUse=1 WtCom= 1.00D+00 WtEn= 0.00D+00
 Coeff-Com: -0.125D-03 0.186D-03-0.174D-03-0.227D-03-0.242D-02-0.168D-02
 Coeff-Com: -0.216D-03 0.863D-02-0.425D-01-0.175D-01 0.356D+00 0.700D+00
 Coeff:     -0.125D-03 0.186D-03-0.174D-03-0.227D-03-0.242D-02-0.168D-02
 Coeff:     -0.216D-03 0.863D-02-0.425D-01-0.175D-01 0.356D+00 0.700D+00
 Gap=     0.069 Goal=   None    Shift=    0.000
 Gap=     0.095 Goal=   None    Shift=    0.000
 RMSDP=2.61D-06 MaxDP=2.65D-04 DE=-1.52D-06 OVMax= 1.54D-03

 Cycle  13  Pass 1  IDiag  1:
 RMSU=  1.31D-06    CP:  9.61D-01  5.63D-01  8.45D-01  8.17D-01  1.01D+00
                    CP:  1.29D+00  1.55D+00  1.87D+00  1.98D+00  1.48D+00
                    CP:  1.22D+00  1.34D+00
 E= -2250.92306184739     Delta-E=       -0.000000669498 Rises=F Damp=F
 DIIS: error= 1.37D-05 at cycle  13 NSaved=  13.
 NSaved=13 IEnMin=13 EnMin= -2250.92306184739     IErMin=13 ErrMin= 1.37D-05
 ErrMax= 1.37D-05  0.00D+00 EMaxC= 1.00D-01 BMatC= 1.97D-07 BMatP= 7.90D-07
 IDIUse=1 WtCom= 1.00D+00 WtEn= 0.00D+00
 Coeff-Com:  0.547D-04-0.625D-04-0.597D-03-0.743D-03-0.334D-02 0.515D-02
 Coeff-Com:  0.201D-01 0.336D-01-0.731D-01-0.991D-01-0.438D-01 0.262D+00
 Coeff-Com:  0.900D+00
 Coeff:      0.547D-04-0.625D-04-0.597D-03-0.743D-03-0.334D-02 0.515D-02
 Coeff:      0.201D-01 0.336D-01-0.731D-01-0.991D-01-0.438D-01 0.262D+00
 Coeff:      0.900D+00
 Gap=     0.069 Goal=   None    Shift=    0.000
 Gap=     0.095 Goal=   None    Shift=    0.000
 RMSDP=2.10D-06 MaxDP=1.40D-04 DE=-6.69D-07 OVMax= 1.42D-03

 Cycle  14  Pass 1  IDiag  1:
 RMSU=  7.09D-07    CP:  9.61D-01  5.63D-01  8.45D-01  8.17D-01  1.01D+00
                    CP:  1.29D+00  1.56D+00  1.88D+00  2.03D+00  1.57D+00
                    CP:  1.43D+00  1.81D+00  1.30D+00
 E= -2250.92306218403     Delta-E=       -0.000000336639 Rises=F Damp=F
 DIIS: error= 9.17D-06 at cycle  14 NSaved=  14.
 NSaved=14 IEnMin=14 EnMin= -2250.92306218403     IErMin=14 ErrMin= 9.17D-06
 ErrMax= 9.17D-06  0.00D+00 EMaxC= 1.00D-01 BMatC= 1.03D-07 BMatP= 1.97D-07
 IDIUse=1 WtCom= 1.00D+00 WtEn= 0.00D+00
 Coeff-Com:  0.670D-04-0.865D-04-0.400D-03-0.572D-03-0.149D-02 0.457D-02
 Coeff-Com:  0.139D-01 0.189D-01-0.417D-01-0.590D-01-0.872D-01 0.221D-01
 Coeff-Com:  0.493D+00 0.638D+00
 Coeff:      0.670D-04-0.865D-04-0.400D-03-0.572D-03-0.149D-02 0.457D-02
 Coeff:      0.139D-01 0.189D-01-0.417D-01-0.590D-01-0.872D-01 0.221D-01
 Coeff:      0.493D+00 0.638D+00
 Gap=     0.069 Goal=   None    Shift=    0.000
 Gap=     0.095 Goal=   None    Shift=    0.000
 RMSDP=1.08D-06 MaxDP=8.02D-05 DE=-3.37D-07 OVMax= 6.99D-04

 Cycle  15  Pass 1  IDiag  1:
 RMSU=  4.12D-07    CP:  9.61D-01  5.63D-01  8.45D-01  8.17D-01  1.01D+00
                    CP:  1.29D+00  1.56D+00  1.89D+00  2.05D+00  1.61D+00
                    CP:  1.53D+00  2.03D+00  1.55D+00  1.43D+00
 E= -2250.92306231222     Delta-E=       -0.000000128190 Rises=F Damp=F
 DIIS: error= 8.59D-06 at cycle  15 NSaved=  15.
 NSaved=15 IEnMin=15 EnMin= -2250.92306231222     IErMin=15 ErrMin= 8.59D-06
 ErrMax= 8.59D-06  0.00D+00 EMaxC= 1.00D-01 BMatC= 3.64D-08 BMatP= 1.03D-07
 IDIUse=1 WtCom= 1.00D+00 WtEn= 0.00D+00
 Coeff-Com:  0.166D-05-0.603D-05 0.984D-04-0.550D-04 0.124D-02-0.469D-03
 Coeff-Com: -0.488D-02-0.109D-01 0.199D-01 0.301D-01 0.203D-01-0.119D+00
 Coeff-Com: -0.416D+00 0.220D+00 0.126D+01
 Coeff:      0.166D-05-0.603D-05 0.984D-04-0.550D-04 0.124D-02-0.469D-03
 Coeff:     -0.488D-02-0.109D-01 0.199D-01 0.301D-01 0.203D-01-0.119D+00
 Coeff:     -0.416D+00 0.220D+00 0.126D+01
 Gap=     0.069 Goal=   None    Shift=    0.000
 Gap=     0.095 Goal=   None    Shift=    0.000
 RMSDP=1.46D-06 MaxDP=1.50D-04 DE=-1.28D-07 OVMax= 9.50D-04

 Cycle  16  Pass 1  IDiag  1:
 RMSU=  3.19D-07    CP:  9.61D-01  5.62D-01  8.45D-01  8.17D-01  1.01D+00
                    CP:  1.29D+00  1.56D+00  1.90D+00  2.08D+00  1.66D+00
                    CP:  1.66D+00  2.33D+00  1.91D+00  2.35D+00  1.60D+00
 E= -2250.92306243191     Delta-E=       -0.000000119689 Rises=F Damp=F
 DIIS: error= 7.36D-06 at cycle  16 NSaved=  16.
 NSaved=16 IEnMin=16 EnMin= -2250.92306243191     IErMin=16 ErrMin= 7.36D-06
 ErrMax= 7.36D-06  0.00D+00 EMaxC= 1.00D-01 BMatC= 1.60D-08 BMatP= 3.64D-08
 IDIUse=1 WtCom= 1.00D+00 WtEn= 0.00D+00
 Coeff-Com: -0.118D-04 0.136D-04 0.141D-03 0.650D-04 0.103D-02-0.139D-02
 Coeff-Com: -0.598D-02-0.102D-01 0.211D-01 0.302D-01 0.295D-01-0.799D-01
 Coeff-Com: -0.360D+00 0.139D-01 0.791D+00 0.570D+00
 Coeff:     -0.118D-04 0.136D-04 0.141D-03 0.650D-04 0.103D-02-0.139D-02
 Coeff:     -0.598D-02-0.102D-01 0.211D-01 0.302D-01 0.295D-01-0.799D-01
 Coeff:     -0.360D+00 0.139D-01 0.791D+00 0.570D+00
 Gap=     0.069 Goal=   None    Shift=    0.000
 Gap=     0.095 Goal=   None    Shift=    0.000
 RMSDP=4.97D-07 MaxDP=7.09D-05 DE=-1.20D-07 OVMax= 2.81D-04

 Cycle  17  Pass 1  IDiag  1:
 RMSU=  1.66D-07    CP:  9.61D-01  5.62D-01  8.45D-01  8.17D-01  1.01D+00
                    CP:  1.29D+00  1.56D+00  1.90D+00  2.08D+00  1.67D+00
                    CP:  1.70D+00  2.42D+00  2.03D+00  2.65D+00  1.98D+00
                    CP:  1.32D+00
 E= -2250.92306246627     Delta-E=       -0.000000034362 Rises=F Damp=F
 DIIS: error= 6.81D-06 at cycle  17 NSaved=  17.
 NSaved=17 IEnMin=17 EnMin= -2250.92306246627     IErMin=17 ErrMin= 6.81D-06
 ErrMax= 6.81D-06  0.00D+00 EMaxC= 1.00D-01 BMatC= 7.75D-09 BMatP= 1.60D-08
 IDIUse=1 WtCom= 1.00D+00 WtEn= 0.00D+00
 Coeff-Com: -0.601D-05 0.904D-05 0.327D-04 0.982D-04-0.149D-03-0.612D-03
 Coeff-Com: -0.593D-03 0.799D-03 0.437D-03-0.145D-02-0.351D-02 0.178D-01
 Coeff-Com:  0.635D-01-0.834D-01-0.306D+00 0.196D+00 0.112D+01
 Coeff:     -0.601D-05 0.904D-05 0.327D-04 0.982D-04-0.149D-03-0.612D-03
 Coeff:     -0.593D-03 0.799D-03 0.437D-03-0.145D-02-0.351D-02 0.178D-01
 Coeff:      0.635D-01-0.834D-01-0.306D+00 0.196D+00 0.112D+01
 Gap=     0.069 Goal=   None    Shift=    0.000
 Gap=     0.095 Goal=   None    Shift=    0.000
 RMSDP=5.70D-07 MaxDP=1.09D-04 DE=-3.44D-08 OVMax= 3.85D-04

 Cycle  18  Pass 1  IDiag  1:
 RMSU=  1.51D-07    CP:  9.61D-01  5.62D-01  8.45D-01  8.17D-01  1.01D+00
                    CP:  1.29D+00  1.56D+00  1.90D+00  2.09D+00  1.69D+00
                    CP:  1.73D+00  2.50D+00  2.13D+00  2.99D+00  2.36D+00
                    CP:  2.21D+00  1.97D+00
 E= -2250.92306250565     Delta-E=       -0.000000039373 Rises=F Damp=F
 DIIS: error= 5.94D-06 at cycle  18 NSaved=  18.
 NSaved=18 IEnMin=18 EnMin= -2250.92306250565     IErMin=18 ErrMin= 5.94D-06
 ErrMax= 5.94D-06  0.00D+00 EMaxC= 1.00D-01 BMatC= 5.93D-09 BMatP= 7.75D-09
 IDIUse=1 WtCom= 1.00D+00 WtEn= 0.00D+00
 Coeff-Com:  0.867D-06-0.896D-06-0.384D-04 0.636D-04-0.557D-03 0.301D-03
 Coeff-Com:  0.238D-02 0.502D-02-0.978D-02-0.149D-01-0.167D-01 0.514D-01
 Coeff-Com:  0.224D+00-0.644D-01-0.616D+00-0.182D+00 0.728D+00 0.893D+00
 Coeff:      0.867D-06-0.896D-06-0.384D-04 0.636D-04-0.557D-03 0.301D-03
 Coeff:      0.238D-02 0.502D-02-0.978D-02-0.149D-01-0.167D-01 0.514D-01
 Coeff:      0.224D+00-0.644D-01-0.616D+00-0.182D+00 0.728D+00 0.893D+00
 Gap=     0.069 Goal=   None    Shift=    0.000
 Gap=     0.095 Goal=   None    Shift=    0.000
 RMSDP=5.27D-07 MaxDP=1.13D-04 DE=-3.94D-08 OVMax= 4.01D-04

 Cycle  19  Pass 1  IDiag  1:
 RMSU=  2.13D-07    CP:  9.61D-01  5.62D-01  8.45D-01  8.17D-01  1.01D+00
                    CP:  1.29D+00  1.56D+00  1.90D+00  2.10D+00  1.70D+00
                    CP:  1.75D+00  2.56D+00  2.22D+00  3.00D+00  2.74D+00
                    CP:  3.00D+00  3.00D+00  1.91D+00
 E= -2250.92306253989     Delta-E=       -0.000000034244 Rises=F Damp=F
 DIIS: error= 5.05D-06 at cycle  19 NSaved=  19.
 NSaved=19 IEnMin=19 EnMin= -2250.92306253989     IErMin=19 ErrMin= 5.05D-06
 ErrMax= 5.05D-06  0.00D+00 EMaxC= 1.00D-01 BMatC= 4.21D-09 BMatP= 5.93D-09
 IDIUse=1 WtCom= 1.00D+00 WtEn= 0.00D+00
 Coeff-Com:  0.563D-05-0.785D-05-0.663D-04-0.907D-04-0.163D-03 0.980D-03
 Coeff-Com:  0.217D-02 0.200D-02-0.669D-02-0.691D-02-0.134D-02 0.159D-01
 Coeff-Com:  0.495D-01 0.358D-01 0.548D-02-0.305D+00-0.823D+00 0.462D+00
 Coeff-Com:  0.157D+01
 Coeff:      0.563D-05-0.785D-05-0.663D-04-0.907D-04-0.163D-03 0.980D-03
 Coeff:      0.217D-02 0.200D-02-0.669D-02-0.691D-02-0.134D-02 0.159D-01
 Coeff:      0.495D-01 0.358D-01 0.548D-02-0.305D+00-0.823D+00 0.462D+00
 Coeff:      0.157D+01
 Gap=     0.069 Goal=   None    Shift=    0.000
 Gap=     0.095 Goal=   None    Shift=    0.000
 RMSDP=9.01D-07 MaxDP=2.01D-04 DE=-3.42D-08 OVMax= 7.21D-04

 Cycle  20  Pass 1  IDiag  1:
 RMSU=  6.16D-07    CP:  9.61D-01  5.62D-01  8.45D-01  8.17D-01  1.01D+00
                    CP:  1.29D+00  1.56D+00  1.90D+00  2.10D+00  1.70D+00
                    CP:  1.77D+00  2.61D+00  2.32D+00  3.00D+00  3.00D+00
                    CP:  3.00D+00  3.00D+00  3.00D+00  3.00D+00
 E= -2250.92306258973     Delta-E=       -0.000000049838 Rises=F Damp=F
 DIIS: error= 3.48D-06 at cycle  20 NSaved=  20.
 NSaved=20 IEnMin=20 EnMin= -2250.92306258973     IErMin=20 ErrMin= 3.48D-06
 ErrMax= 3.48D-06  0.00D+00 EMaxC= 1.00D-01 BMatC= 2.63D-09 BMatP= 4.21D-09
 IDIUse=1 WtCom= 1.00D+00 WtEn= 0.00D+00
 Coeff-Com:  0.423D-05-0.409D-05-0.246D-04-0.114D-03 0.191D-03 0.426D-03
 Coeff-Com:  0.161D-03-0.112D-02 0.162D-02 0.390D-02 0.742D-02-0.265D-01
 Coeff-Com: -0.110D+00 0.649D-01 0.413D+00-0.336D-01-0.940D+00-0.421D+00
 Coeff-Com:  0.780D+00 0.126D+01
 Coeff:      0.423D-05-0.409D-05-0.246D-04-0.114D-03 0.191D-03 0.426D-03
 Coeff:      0.161D-03-0.112D-02 0.162D-02 0.390D-02 0.742D-02-0.265D-01
 Coeff:     -0.110D+00 0.649D-01 0.413D+00-0.336D-01-0.940D+00-0.421D+00
 Coeff:      0.780D+00 0.126D+01
 Gap=     0.069 Goal=   None    Shift=    0.000
 Gap=     0.095 Goal=   None    Shift=    0.000
 RMSDP=9.09D-07 MaxDP=1.99D-04 DE=-4.98D-08 OVMax= 7.27D-04

 Cycle  21  Pass 1  IDiag  1:
 Restarting incremental Fock formation.
 E= -2250.92306262527     Delta-E=       -0.000000035540 Rises=F Damp=F
 DIIS: error= 2.42D-06 at cycle  21 NSaved=  20.
 NSaved=20 IEnMin=20 EnMin= -2250.92306262527     IErMin=20 ErrMin= 2.42D-06
 ErrMax= 2.42D-06  0.00D+00 EMaxC= 1.00D-01 BMatC= 2.13D-09 BMatP= 2.63D-09
 IDIUse=1 WtCom= 1.00D+00 WtEn= 0.00D+00
 Coeff-Com:  0.328D-05 0.231D-04-0.528D-04 0.252D-03-0.483D-03-0.141D-02
 Coeff-Com: -0.198D-02 0.712D-02 0.817D-02 0.476D-02-0.400D-01-0.137D+00
 Coeff-Com:  0.373D-01 0.383D+00 0.245D+00-0.169D+00-0.849D+00-0.705D+00
 Coeff-Com:  0.124D+01 0.978D+00
 Coeff:      0.328D-05 0.231D-04-0.528D-04 0.252D-03-0.483D-03-0.141D-02
 Coeff:     -0.198D-02 0.712D-02 0.817D-02 0.476D-02-0.400D-01-0.137D+00
 Coeff:      0.373D-01 0.383D+00 0.245D+00-0.169D+00-0.849D+00-0.705D+00
 Coeff:      0.124D+01 0.978D+00
 Gap=     0.069 Goal=   None    Shift=    0.000
 Gap=     0.095 Goal=   None    Shift=    0.000
 RMSDP=1.02D-06 MaxDP=2.16D-04 DE=-3.55D-08 OVMax= 8.03D-04

 Cycle  22  Pass 1  IDiag  1:
 RMSU=  1.02D-06    CP:  1.00D+00
 E= -2250.92306264746     Delta-E=       -0.000000022191 Rises=F Damp=F
 DIIS: error= 1.43D-06 at cycle  22 NSaved=  20.
 NSaved=20 IEnMin=20 EnMin= -2250.92306264746     IErMin=20 ErrMin= 1.43D-06
 ErrMax= 1.43D-06  0.00D+00 EMaxC= 1.00D-01 BMatC= 4.02D-10 BMatP= 2.13D-09
 IDIUse=1 WtCom= 1.00D+00 WtEn= 0.00D+00
 Coeff-Com:  0.142D-04 0.304D-04 0.123D-05-0.272D-03-0.348D-03-0.161D-03
 Coeff-Com:  0.141D-02 0.452D-03-0.420D-02-0.243D-02 0.893D-02 0.266D-02
 Coeff-Com: -0.476D-01 0.425D-01 0.217D+00-0.312D-01-0.340D+00-0.170D+00
 Coeff-Com:  0.231D+00 0.109D+01
 Coeff:      0.142D-04 0.304D-04 0.123D-05-0.272D-03-0.348D-03-0.161D-03
 Coeff:      0.141D-02 0.452D-03-0.420D-02-0.243D-02 0.893D-02 0.266D-02
 Coeff:     -0.476D-01 0.425D-01 0.217D+00-0.312D-01-0.340D+00-0.170D+00
 Coeff:      0.231D+00 0.109D+01
 Gap=     0.069 Goal=   None    Shift=    0.000
 Gap=     0.095 Goal=   None    Shift=    0.000
 RMSDP=3.82D-07 MaxDP=7.82D-05 DE=-2.22D-08 OVMax= 2.94D-04

 Cycle  23  Pass 1  IDiag  1:
 RMSU=  7.16D-08    CP:  1.00D+00  1.37D+00
 E= -2250.92306265118     Delta-E=       -0.000000003724 Rises=F Damp=F
 DIIS: error= 1.03D-06 at cycle  23 NSaved=  20.
 NSaved=20 IEnMin=20 EnMin= -2250.92306265118     IErMin=20 ErrMin= 1.03D-06
 ErrMax= 1.03D-06  0.00D+00 EMaxC= 1.00D-01 BMatC= 1.97D-10 BMatP= 4.02D-10
 IDIUse=1 WtCom= 1.00D+00 WtEn= 0.00D+00
 Coeff-Com:  0.195D-04-0.536D-04-0.154D-04 0.182D-03 0.333D-03-0.818D-03
 Coeff-Com: -0.164D-02-0.317D-02 0.671D-02 0.314D-01-0.511D-02-0.998D-01
 Coeff-Com: -0.309D-01 0.144D+00 0.167D+00-0.309D-01-0.346D+00-0.936D-01
 Coeff-Com:  0.541D+00 0.722D+00
 Coeff:      0.195D-04-0.536D-04-0.154D-04 0.182D-03 0.333D-03-0.818D-03
 Coeff:     -0.164D-02-0.317D-02 0.671D-02 0.314D-01-0.511D-02-0.998D-01
 Coeff:     -0.309D-01 0.144D+00 0.167D+00-0.309D-01-0.346D+00-0.936D-01
 Coeff:      0.541D+00 0.722D+00
 Gap=     0.069 Goal=   None    Shift=    0.000
 Gap=     0.095 Goal=   None    Shift=    0.000
 RMSDP=1.13D-07 MaxDP=2.61D-05 DE=-3.72D-09 OVMax= 8.29D-05

 Cycle  24  Pass 1  IDiag  1:
 RMSU=  3.16D-08    CP:  1.00D+00  1.47D+00  1.48D+00
 E= -2250.92306265198     Delta-E=       -0.000000000799 Rises=F Damp=F
 DIIS: error= 9.01D-07 at cycle  24 NSaved=  20.
 NSaved=20 IEnMin=20 EnMin= -2250.92306265198     IErMin=20 ErrMin= 9.01D-07
 ErrMax= 9.01D-07  0.00D+00 EMaxC= 1.00D-01 BMatC= 1.19D-10 BMatP= 1.97D-10
 IDIUse=1 WtCom= 1.00D+00 WtEn= 0.00D+00
 Coeff-Com:  0.997D-05 0.685D-04 0.490D-04-0.876D-04-0.214D-03-0.682D-05
 Coeff-Com:  0.123D-02 0.125D-02 0.138D-02-0.167D-02 0.152D-02-0.263D-01
 Coeff-Com: -0.615D-01 0.655D-01 0.137D+00-0.243D-01-0.142D+00-0.328D+00
 Coeff-Com:  0.305D+00 0.107D+01
 Coeff:      0.997D-05 0.685D-04 0.490D-04-0.876D-04-0.214D-03-0.682D-05
 Coeff:      0.123D-02 0.125D-02 0.138D-02-0.167D-02 0.152D-02-0.263D-01
 Coeff:     -0.615D-01 0.655D-01 0.137D+00-0.243D-01-0.142D+00-0.328D+00
 Coeff:      0.305D+00 0.107D+01
 Gap=     0.069 Goal=   None    Shift=    0.000
 Gap=     0.095 Goal=   None    Shift=    0.000
 RMSDP=8.89D-08 MaxDP=2.25D-05 DE=-7.99D-10 OVMax= 6.23D-05

 Cycle  25  Pass 1  IDiag  1:
 RMSU=  2.48D-08    CP:  1.00D+00  1.53D+00  2.14D+00  2.10D+00
 E= -2250.92306265269     Delta-E=       -0.000000000707 Rises=F Damp=F
 DIIS: error= 7.94D-07 at cycle  25 NSaved=  20.
 NSaved=20 IEnMin=20 EnMin= -2250.92306265269     IErMin=20 ErrMin= 7.94D-07
 ErrMax= 7.94D-07  0.00D+00 EMaxC= 1.00D-01 BMatC= 8.58D-11 BMatP= 1.19D-10
 IDIUse=1 WtCom= 1.00D+00 WtEn= 0.00D+00
 Coeff-Com:  0.129D-04 0.159D-04 0.942D-04-0.261D-04-0.181D-04-0.634D-04
[...]
     1  C(13)             -0.00203      -0.76243      -0.27205      -0.25432
     2  C(13)             -0.00203      -0.76217      -0.27196      -0.25423
     3  C(13)             -0.00279      -1.04467      -0.37276      -0.34846
     4  C(13)             -0.00279      -1.04557      -0.37309      -0.34877
     5  N(14)             -0.06232      -6.71166      -2.39489      -2.23877
     6  C(13)             -0.00037      -0.13799      -0.04924      -0.04603
     7  C(13)             -0.00037      -0.13799      -0.04924      -0.04603
     8  C(13)             -0.00279      -1.04561      -0.37310      -0.34878
     9  N(14)             -0.06232      -6.71209      -2.39504      -2.23891
    10  C(13)             -0.00203      -0.76229      -0.27201      -0.25427
    11  C(13)             -0.00279      -1.04480      -0.37281      -0.34851
    12  N(14)             -0.06232      -6.71239      -2.39515      -2.23901
    13  C(13)             -0.00204      -0.76265      -0.27213      -0.25439
    14  C(13)             -0.00203      -0.76255      -0.27210      -0.25436
    15  C(13)             -0.00279      -1.04488      -0.37284      -0.34853
    16  C(13)             -0.00037      -0.13803      -0.04925      -0.04604
    17  C(13)             -0.00203      -0.76219      -0.27197      -0.25424
    18  C(13)             -0.00279      -1.04601      -0.37324      -0.34891
    19  C(13)             -0.00279      -1.04579      -0.37316      -0.34884
    20  N(14)             -0.06233      -6.71278      -2.39529      -2.23914
    21  C(13)             -0.00203      -0.76228      -0.27200      -0.25427
    22  C(13)             -0.00204      -0.76276      -0.27217      -0.25443
    23  C(13)             -0.00279      -1.04493      -0.37286      -0.34855
    24  C(13)             -0.00037      -0.13802      -0.04925      -0.04604
    25  Fe(57)             0.73900      35.72791      12.74861      11.91755
    26  H(1)              -0.00037      -0.55507      -0.19806      -0.18515
    27  H(1)              -0.00037      -0.55553      -0.19823      -0.18531
    28  H(1)               0.00016       0.23708       0.08460       0.07908
    29  H(1)               0.00016       0.23708       0.08460       0.07908
    30  H(1)              -0.00037      -0.55572      -0.19830      -0.18537
    31  H(1)              -0.00037      -0.55531      -0.19815      -0.18523
    32  H(1)               0.00016       0.23707       0.08459       0.07908
    33  H(1)              -0.00037      -0.55581      -0.19833      -0.18540
    34  H(1)              -0.00037      -0.55527      -0.19813      -0.18522
    35  H(1)               0.00016       0.23705       0.08458       0.07907
    36  H(1)              -0.00037      -0.55531      -0.19815      -0.18523
    37  H(1)              -0.00037      -0.55573      -0.19830      -0.18537
 --------------------------------------------------------
       Center         ----  Spin Dipole Couplings  ----
                      3XX-RR        3YY-RR        3ZZ-RR
 --------------------------------------------------------
     1   Atom       -0.004051     -0.009536      0.013587
     2   Atom       -0.012204     -0.001401      0.013606
     3   Atom        0.004010     -0.007858      0.003849
     4   Atom       -0.016561      0.012718      0.003844
     5   Atom       -0.007862     -0.014968      0.022830
     6   Atom       -0.006761      0.025089     -0.018328
     7   Atom        0.025089     -0.006760     -0.018328
     8   Atom        0.012716     -0.016561      0.003845
     9   Atom       -0.014981     -0.007863      0.022845
    10   Atom       -0.001403     -0.012205      0.013608
    11   Atom       -0.007860      0.004009      0.003851
    12   Atom       -0.014972     -0.007877      0.022849
    13   Atom       -0.009538     -0.004053      0.013591
    14   Atom       -0.009539     -0.004054      0.013593
    15   Atom       -0.007861      0.004009      0.003852
    16   Atom       -0.006759      0.025088     -0.018329
    17   Atom       -0.001404     -0.012207      0.013612
    18   Atom        0.012714     -0.016561      0.003847
    19   Atom       -0.016560      0.012715      0.003845
    20   Atom       -0.007874     -0.014983      0.022857
    21   Atom       -0.012207     -0.001405      0.013612
    22   Atom       -0.004052     -0.009538      0.013590
    23   Atom        0.004010     -0.007862      0.003852
    24   Atom        0.025087     -0.006759     -0.018327
    25   Atom       -2.402489     -2.402423      4.804912
    26   Atom        0.003416     -0.000555     -0.002861
    27   Atom       -0.002815      0.005675     -0.002860
    28   Atom        0.008468     -0.003733     -0.004735
    29   Atom       -0.003733      0.008468     -0.004735
    30   Atom        0.005675     -0.002815     -0.002861
    31   Atom       -0.000555      0.003416     -0.002861
    32   Atom       -0.003733      0.008468     -0.004734
    33   Atom       -0.002815      0.005675     -0.002860
    34   Atom        0.003416     -0.000556     -0.002861
    35   Atom        0.008467     -0.003733     -0.004734
    36   Atom       -0.000555      0.003416     -0.002861
    37   Atom        0.005675     -0.002815     -0.002860
 --------------------------------------------------------
                        XY            XZ            YZ
 --------------------------------------------------------
     1   Atom        0.005626     -0.000015     -0.000022
     2   Atom        0.003164     -0.000018     -0.000020
     3   Atom        0.017510     -0.000014     -0.000019
     4   Atom        0.011286     -0.000012     -0.000017
     5   Atom       -0.011775      0.000085      0.000118
     6   Atom       -0.004814     -0.000008     -0.000007
     7   Atom        0.004816     -0.000003     -0.000009
     8   Atom       -0.011285     -0.000005     -0.000009
     9   Atom        0.011773     -0.000061      0.000046
    10   Atom       -0.003165      0.000014     -0.000004
    11   Atom       -0.017509     -0.000013      0.000000
    12   Atom        0.011779      0.000066     -0.000050
    13   Atom       -0.005626     -0.000015      0.000015
    14   Atom       -0.005627      0.000011      0.000002
    15   Atom       -0.017507      0.000002      0.000009
    16   Atom       -0.004814      0.000008      0.000010
    17   Atom       -0.003164     -0.000003      0.000018
    18   Atom       -0.011284      0.000001      0.000007
    19   Atom        0.011286      0.000015      0.000012
    20   Atom       -0.011785     -0.000071     -0.000095
    21   Atom        0.003164      0.000016      0.000015
    22   Atom        0.005626      0.000008      0.000020
    23   Atom        0.017509      0.000007      0.000014
    24   Atom        0.004814      0.000004      0.000009
    25   Atom        0.000079      0.000196      0.000125
    26   Atom        0.004676      0.000003      0.000001
    27   Atom        0.002793      0.000000      0.000003
    28   Atom        0.001845     -0.000001      0.000000
    29   Atom       -0.001845      0.000001     -0.000002
    30   Atom       -0.002793     -0.000006      0.000002
    31   Atom       -0.004677     -0.000002      0.000003
    32   Atom       -0.001844     -0.000001      0.000002
    33   Atom        0.002793      0.000000     -0.000003
    34   Atom        0.004676     -0.000002     -0.000001
    35   Atom        0.001845      0.000001      0.000000
    36   Atom       -0.004677      0.000003     -0.000005
    37   Atom       -0.002793      0.000004     -0.000001
 --------------------------------------------------------


 ---------------------------------------------------------------------------------
              Anisotropic Spin Dipole Couplings in Principal Axis System
 ---------------------------------------------------------------------------------

       Atom             a.u.   MegaHertz   Gauss  10(-4) cm-1        Axes

              Baa    -0.0131    -1.752    -0.625    -0.584 -0.5300  0.8480  0.0004
     1 C(13)  Bbb    -0.0005    -0.072    -0.026    -0.024  0.8480  0.5300  0.0017
              Bcc     0.0136     1.823     0.651     0.608 -0.0012 -0.0012  1.0000
 
              Baa    -0.0131    -1.753    -0.625    -0.585  0.9651 -0.2618  0.0004
     2 C(13)  Bbb    -0.0005    -0.073    -0.026    -0.024  0.2618  0.9651  0.0017
              Bcc     0.0136     1.826     0.651     0.609 -0.0009 -0.0015  1.0000
 
              Baa    -0.0204    -2.739    -0.977    -0.914 -0.5827  0.8127  0.0003
     3 C(13)  Bbb     0.0038     0.516     0.184     0.172  0.0016  0.0008  1.0000
              Bcc     0.0166     2.223     0.793     0.741  0.8127  0.5827 -0.0017
 
              Baa    -0.0204    -2.738    -0.977    -0.913  0.9466 -0.3225  0.0003
     4 C(13)  Bbb     0.0038     0.516     0.184     0.172  0.0003  0.0016  1.0000
              Bcc     0.0166     2.223     0.793     0.741  0.3225  0.9466 -0.0016
 
              Baa    -0.0237    -0.915    -0.326    -0.305  0.5963  0.8028 -0.0031
     5 N(14)  Bbb     0.0009     0.034     0.012     0.011  0.8028 -0.5963  0.0001
              Bcc     0.0228     0.881     0.314     0.294  0.0018  0.0026  1.0000
 
              Baa    -0.0183    -2.460    -0.878    -0.820  0.0007  0.0002  1.0000
     6 C(13)  Bbb    -0.0075    -1.003    -0.358    -0.334  0.9892  0.1463 -0.0008
              Bcc     0.0258     3.462     1.235     1.155 -0.1463  0.9892 -0.0001
 
              Baa    -0.0183    -2.460    -0.878    -0.820  0.0000  0.0008  1.0000
     7 C(13)  Bbb    -0.0075    -1.003    -0.358    -0.334 -0.1463  0.9892 -0.0007
              Bcc     0.0258     3.462     1.235     1.155  0.9892  0.1463 -0.0001
 
              Baa    -0.0204    -2.738    -0.977    -0.913  0.3225  0.9466  0.0004
     8 C(13)  Bbb     0.0038     0.516     0.184     0.172  0.0000 -0.0005  1.0000
              Bcc     0.0166     2.222     0.793     0.741  0.9466 -0.3225 -0.0001
 
              Baa    -0.0237    -0.915    -0.326    -0.305  0.8029 -0.5961  0.0016
     9 N(14)  Bbb     0.0009     0.034     0.012     0.011  0.5961  0.8029  0.0000
              Bcc     0.0228     0.881     0.314     0.294 -0.0013  0.0010  1.0000
 
              Baa    -0.0131    -1.753    -0.626    -0.585  0.2619  0.9651  0.0000
    10 C(13)  Bbb    -0.0005    -0.073    -0.026    -0.024  0.9651 -0.2619 -0.0010
              Bcc     0.0136     1.826     0.652     0.609  0.0010 -0.0003  1.0000
 
              Baa    -0.0204    -2.739    -0.977    -0.914  0.8127  0.5827  0.0004
    11 C(13)  Bbb     0.0039     0.517     0.184     0.172  0.0000 -0.0007  1.0000
              Bcc     0.0166     2.222     0.793     0.741 -0.5827  0.8127  0.0006
 
              Baa    -0.0237    -0.915    -0.327    -0.305  0.8026 -0.5965 -0.0018
    12 N(14)  Bbb     0.0009     0.034     0.012     0.011  0.5965  0.8026  0.0000
              Bcc     0.0228     0.881     0.314     0.294  0.0014 -0.0011  1.0000
 
              Baa    -0.0131    -1.752    -0.625    -0.584  0.8480  0.5300  0.0002
    13 C(13)  Bbb    -0.0005    -0.072    -0.026    -0.024 -0.5300  0.8480 -0.0015
              Bcc     0.0136     1.824     0.651     0.608 -0.0009  0.0012  1.0000
 
              Baa    -0.0131    -1.752    -0.625    -0.584  0.8480  0.5300 -0.0004
    14 C(13)  Bbb    -0.0005    -0.072    -0.026    -0.024 -0.5300  0.8480  0.0003
              Bcc     0.0136     1.824     0.651     0.608  0.0005  0.0000  1.0000
 
              Baa    -0.0204    -2.739    -0.977    -0.914  0.8127  0.5826 -0.0003
    15 C(13)  Bbb     0.0039     0.517     0.184     0.172  0.0005 -0.0002  1.0000
              Bcc     0.0166     2.222     0.793     0.741 -0.5826  0.8127  0.0005
 
              Baa    -0.0183    -2.460    -0.878    -0.820 -0.0008 -0.0003  1.0000
    16 C(13)  Bbb    -0.0075    -1.003    -0.358    -0.334  0.9892  0.1463  0.0008
              Bcc     0.0258     3.462     1.235     1.155 -0.1463  0.9892  0.0002
 
              Baa    -0.0131    -1.753    -0.626    -0.585  0.2619  0.9651 -0.0006
    17 C(13)  Bbb    -0.0005    -0.073    -0.026    -0.024  0.9651 -0.2619  0.0005
              Bcc     0.0136     1.827     0.652     0.609 -0.0003  0.0007  1.0000
 
              Baa    -0.0204    -2.738    -0.977    -0.913  0.3225  0.9466 -0.0003
    18 C(13)  Bbb     0.0038     0.516     0.184     0.172  0.0002  0.0002  1.0000
              Bcc     0.0166     2.222     0.793     0.741  0.9466 -0.3225 -0.0001
 
              Baa    -0.0204    -2.738    -0.977    -0.913  0.9466 -0.3225 -0.0004
    19 C(13)  Bbb     0.0038     0.516     0.184     0.172  0.0000 -0.0013  1.0000
              Bcc     0.0166     2.222     0.793     0.741  0.3225  0.9466  0.0013
 
              Baa    -0.0237    -0.916    -0.327    -0.305  0.5963  0.8027  0.0025
    20 N(14)  Bbb     0.0009     0.034     0.012     0.011  0.8027 -0.5963  0.0000
              Bcc     0.0229     0.882     0.315     0.294 -0.0015 -0.0020  1.0000
 
              Baa    -0.0131    -1.753    -0.626    -0.585  0.9651 -0.2619 -0.0004
    21 C(13)  Bbb    -0.0005    -0.073    -0.026    -0.024  0.2619  0.9651 -0.0013
              Bcc     0.0136     1.827     0.652     0.609  0.0007  0.0012  1.0000
 
              Baa    -0.0131    -1.752    -0.625    -0.584 -0.5300  0.8480 -0.0005
    22 C(13)  Bbb    -0.0005    -0.072    -0.026    -0.024  0.8480  0.5300 -0.0012
              Bcc     0.0136     1.824     0.651     0.608  0.0008  0.0010  1.0000
 
              Baa    -0.0204    -2.739    -0.977    -0.914 -0.5826  0.8127 -0.0003
    23 C(13)  Bbb     0.0039     0.517     0.184     0.172 -0.0011 -0.0004  1.0000
              Bcc     0.0166     2.222     0.793     0.741  0.8127  0.5826  0.0011
 
              Baa    -0.0183    -2.459    -0.878    -0.820  0.0000 -0.0008  1.0000
    24 C(13)  Bbb    -0.0075    -1.003    -0.358    -0.334 -0.1463  0.9892  0.0008
              Bcc     0.0258     3.462     1.235     1.155  0.9892  0.1463  0.0001
 
              Baa    -2.4025   -41.595   -14.842   -13.875  0.8325 -0.5540  0.0000
    25 Fe(57) Bbb    -2.4024   -41.592   -14.841   -13.874  0.5540  0.8325  0.0000
              Bcc     4.8049    83.187    29.683    27.748  0.0000  0.0000  1.0000
 
              Baa    -0.0037    -1.948    -0.695    -0.650 -0.5519  0.8339  0.0008
    26 H(1)   Bbb    -0.0029    -1.526    -0.545    -0.509  0.0002 -0.0009  1.0000
              Bcc     0.0065     3.474     1.240     1.159  0.8339  0.5519  0.0003
 
              Baa    -0.0037    -1.948    -0.695    -0.650  0.9580 -0.2869  0.0009
    27 H(1)   Bbb    -0.0029    -1.526    -0.545    -0.509 -0.0009 -0.0001  1.0000
              Bcc     0.0065     3.474     1.240     1.159  0.2869  0.9580  0.0003
 
              Baa    -0.0047    -2.526    -0.901    -0.843  0.0001 -0.0003  1.0000
    28 H(1)   Bbb    -0.0040    -2.137    -0.763    -0.713 -0.1463  0.9892  0.0004
              Bcc     0.0087     4.664     1.664     1.556  0.9892  0.1463 -0.0001
 
              Baa    -0.0047    -2.526    -0.901    -0.843 -0.0004  0.0001  1.0000
    29 H(1)   Bbb    -0.0040    -2.137    -0.763    -0.713  0.9892  0.1463  0.0004
              Bcc     0.0087     4.664     1.664     1.556 -0.1463  0.9892 -0.0001
 
              Baa    -0.0037    -1.948    -0.695    -0.650  0.2869  0.9580  0.0000
    30 H(1)   Bbb    -0.0029    -1.526    -0.545    -0.509  0.0006 -0.0002  1.0000
              Bcc     0.0065     3.474     1.240     1.159  0.9580 -0.2869 -0.0006
 
              Baa    -0.0037    -1.948    -0.695    -0.650  0.8339  0.5519 -0.0002
    31 H(1)   Bbb    -0.0029    -1.526    -0.545    -0.509  0.0004 -0.0002  1.0000
              Bcc     0.0065     3.474     1.240     1.159 -0.5519  0.8339  0.0004
 
              Baa    -0.0047    -2.526    -0.901    -0.843  0.0003 -0.0001  1.0000
    32 H(1)   Bbb    -0.0040    -2.137    -0.763    -0.713  0.9892  0.1463 -0.0003
              Bcc     0.0087     4.663     1.664     1.556 -0.1463  0.9892  0.0002
 
              Baa    -0.0037    -1.948    -0.695    -0.650  0.9580 -0.2869 -0.0008
    33 H(1)   Bbb    -0.0029    -1.526    -0.545    -0.509  0.0008  0.0000  1.0000
              Bcc     0.0065     3.474     1.240     1.159  0.2869  0.9580 -0.0003
 
              Baa    -0.0037    -1.948    -0.695    -0.650 -0.5519  0.8339 -0.0008
    34 H(1)   Bbb    -0.0029    -1.526    -0.545    -0.509 -0.0002  0.0008  1.0000
              Bcc     0.0065     3.474     1.240     1.159  0.8339  0.5519 -0.0003
 
              Baa    -0.0047    -2.526    -0.901    -0.843 -0.0001  0.0003  1.0000
    35 H(1)   Bbb    -0.0040    -2.137    -0.763    -0.713 -0.1463  0.9892 -0.0003
              Bcc     0.0087     4.663     1.664     1.556  0.9892  0.1463  0.0001
 
              Baa    -0.0037    -1.948    -0.695    -0.650  0.8339  0.5519  0.0004
    36 H(1)   Bbb    -0.0029    -1.526    -0.545    -0.509 -0.0007  0.0003  1.0000
              Bcc     0.0065     3.474     1.240     1.159 -0.5519  0.8339 -0.0006
 
              Baa    -0.0037    -1.948    -0.695    -0.650  0.2869  0.9580 -0.0006
    37 H(1)   Bbb    -0.0029    -1.526    -0.545    -0.509 -0.0002  0.0007  1.0000
              Bcc     0.0065     3.474     1.240     1.159  0.9580 -0.2869  0.0004
 

 ---------------------------------------------------------------------------------

 No NMR shielding tensors so no spin-rotation constants.
 Leave Link  601 at Wed Dec 12 16:37:01 2018, MaxMem= 16374562816 cpu:        23.2
 (Enter /sw/xc40cle6/gaussian09/d.01/precompiled/g09/l9999.exe)
 1\1\GINC-NID06243\FOpt\UPBE1PBE\TZVP\C20H12Fe1N4(1+,4)\CALCINF\12-Dec-
 2018\0\\#pbe1pbe/tzvp scf=(xqc, maxconventionalcycles=2000) SCRF=(SMD,
 Solvent=water) opt\\Dscr 1 Fe(III) S 4\\1,4\C,0.7575881635,4.169240520
 8,-0.0108592804\C,-0.5995314094,4.1969823266,-0.0116335657\C,1.1461900
 968,2.7958272341,-0.0093995114\C,-1.0439544082,2.8405441323,-0.0106554
 046\N,0.0341961962,1.9894320194,-0.0092618475\C,-2.3682702509,2.461656
 639,-0.0115415213\C,2.4540758146,2.3633150196,-0.0088871434\C,2.833052
 4771,1.0389482457,-0.0074680565\N,1.9818864423,-0.0392738522,-0.005510
 584\C,4.189473022,0.5944522617,-0.0070347215\C,-2.8008258911,1.1537649
 682,-0.01054223\N,-1.9944071364,0.0416942568,-0.0075683217\C,-4.174253
 3766,0.7651191633,-0.0118389701\C,4.1617897756,-0.7626603545,-0.004631
 8681\C,2.7883496973,-1.1513406463,-0.0038485863\C,2.3557906375,-2.4592
 574045,-0.0015602259\C,-4.2020706411,-0.592012239,-0.0093256537\C,-2.8
 456302355,-1.0365084215,-0.0069512499\C,1.0313903176,-2.8380914772,-0.
 0009525642\N,-0.0467749573,-1.9869118036,-0.0031556265\C,0.586865907,-
 4.194508576,0.0016938143\C,-0.7702645049,-4.1667056459,0.0008953119\C,
 -1.1588397275,-2.7932974985,-0.0021826194\C,-2.4667470036,-2.360852192
 4,-0.004113436\Fe,-0.006258948,0.0012365157,-0.0060534513\H,1.45175301
 86,4.9974076892,-0.0109934077\H,-1.2592991722,5.0528121511,-0.01253227
 33\H,3.2353775888,3.1134373233,-0.0093764601\H,-3.1185078278,3.2428441
 289,-0.0130649222\H,5.0453494827,1.2541331424,-0.0084552088\H,4.990061
 3661,-1.4566829497,-0.0036568992\H,3.1059436343,-3.2405213993,-0.00017
 10766\H,1.2464880446,-5.0504486802,0.0038621576\H,-1.4643529589,-4.994
 9334021,0.0022779575\H,-3.2480004115,-3.1110105952,-0.003382943\H,-5.0
 024655049,1.4592102625,-0.0141588502\H,-5.0579973167,-1.2516348625,-0.
 0092167607\\Version=ES64L-G09RevD.01\State=4-A\HF=-2250.9793187\S2=3.8
 14368\S2-1=0.\S2A=3.750652\RMSD=6.066e-09\RMSF=1.404e-04\Dipole=-0.000
 1144,-0.0000385,0.0008903\Quadrupole=14.9060951,14.9028747,-29.8089697
 ,0.0005556,0.0232541,-0.0656841\PG=C01 [X(C20H12Fe1N4)]\\@


 There ain't no surer way to find out whether you
 like people or hate them than to travel with them.
                                     -- Mark Twain
 Job cpu time:       1 days 20 hours  0 minutes 30.7 seconds.
 File lengths (MBytes):  RWF=    484 Int=      0 D2E=      0 Chk=     32 Scr=      1
 Normal termination of Gaussian 09 at Wed Dec 12 16:37:01 2018.
